 vasp.5.4.4 18Apr17 (build Oct 20 2017 19:30:59) complex                        
  
 executed on      IFC17_CrayMPICH date 2019.04.21  14:11:48
 running   64 mpi-ranks, with    1 threads/rank
 distrk:  each k-point on   64 cores,    1 groups
 distr:  one band on NCORES_PER_BAND=   1 cores,   64 groups


--------------------------------------------------------------------------------------------------------


 INCAR:
 POTCAR:    PAW_PBE Zn 06Sep2000                  
 POTCAR:    PAW_PBE Te 08Apr2002                  
 POTCAR:    PAW_PBE Zn 06Sep2000                  
   VRHFIN =Zn: d10 p2                                                           
   LEXCH  = PE                                                                  
   EATOM  =  1748.8345 eV,  128.5357 Ry                                         
                                                                                
   TITEL  = PAW_PBE Zn 06Sep2000                                                
   LULTRA =        F    use ultrasoft PP ?                                      
   IUNSCR =        1    unscreen: 0-lin 1-nonlin 2-no                           
   RPACOR =    2.000    partial core radius                                     
   POMASS =   65.390; ZVAL   =   12.000    mass and valenz                      
   RCORE  =    2.300    outmost cutoff radius                                   
   RWIGS  =    2.400; RWIGS  =    1.270    wigner-seitz radius (au A)           
   ENMAX  =  276.723; ENMIN  =  207.542 eV                                      
   RCLOC  =    1.828    cutoff for local pot                                    
   LCOR   =        T    correct aug charges                                     
   LPAW   =        T    paw PP                                                  
   EAUG   =  575.892                                                            
   DEXC   =    0.000                                                            
   RMAX   =    2.347    core radius for proj-oper                               
   RAUG   =    1.300    factor for augmentation sphere                          
   RDEP   =    2.324    radius for radial grids                                 
   RDEPT  =    1.788    core radius for aug-charge                              
                                                                                
   Atomic configuration                                                         
    9 entries                                                                   
     n  l   j            E        occ.                                          
     1  0  0.50     -9524.6913   2.0000                                         
     2  0  0.50     -1158.1882   2.0000                                         
     2  1  1.50     -1003.8506   6.0000                                         
     3  0  0.50      -129.2194   2.0000                                         
     3  1  1.50       -83.3890   6.0000                                         
     3  2  2.50       -10.1410  10.0000                                         
     4  0  0.50        -5.9785   2.0000                                         
     4  1  0.50        -4.0817   0.0000                                         
     4  3  2.50        -1.3606   0.0000                                         
   Description                                                                  
     l       E           TYP  RCUT    TYP  RCUT                                 
     2    -10.1410010     23  2.300                                             
     2    -11.5015836     23  2.300                                             
     0     -5.9785163     23  2.300                                             
     0      1.1858015     23  2.300                                             
     1     -2.7211652     23  2.300                                             
     1     13.2444212     23  2.300                                             
  local pseudopotential read in
  partial core-charges read in
  partial kinetic energy density read in
  atomic valenz-charges read in
  non local Contribution for L=           2  read in
    real space projection operators read in
  non local Contribution for L=           2  read in
    real space projection operators read in
  non local Contribution for L=           0  read in
    real space projection operators read in
  non local Contribution for L=           0  read in
    real space projection operators read in
  non local Contribution for L=           1  read in
    real space projection operators read in
  non local Contribution for L=           1  read in
    real space projection operators read in
    PAW grid and wavefunctions read in
 
   number of l-projection  operators is LMAX  =           6
   number of lm-projection operators is LMMAX =          18
 
 POTCAR:    PAW_PBE Te 08Apr2002                  
   VRHFIN =Te: s2p4                                                             
   LEXCH  = PE                                                                  
   EATOM  =   223.2721 eV,   16.4100 Ry                                         
                                                                                
   TITEL  = PAW_PBE Te 08Apr2002                                                
   LULTRA =        F    use ultrasoft PP ?                                      
   IUNSCR =        1    unscreen: 0-lin 1-nonlin 2-no                           
   RPACOR =    2.200    partial core radius                                     
   POMASS =  127.600; ZVAL   =    6.000    mass and valenz                      
   RCORE  =    2.300    outmost cutoff radius                                   
   RWIGS  =    2.900; RWIGS  =    1.535    wigner-seitz radius (au A)           
   ENMAX  =  174.982; ENMIN  =  131.236 eV                                      
   ICORE  =        3    local potential                                         
   LCOR   =        T    correct aug charges                                     
   LPAW   =        T    paw PP                                                  
   EAUG   =  368.792                                                            
   DEXC   =    0.000                                                            
   RMAX   =    2.345    core radius for proj-oper                               
   RAUG   =    1.300    factor for augmentation sphere                          
   RDEP   =    2.397    radius for radial grids                                 
   RDEPT  =    2.174    core radius for aug-charge                              
                                                                                
   Atomic configuration                                                         
   13 entries                                                                   
     n  l   j            E        occ.                                          
     1  0  0.50    -31621.2075   2.0000                                         
     2  0  0.50     -4848.7941   2.0000                                         
     2  1  1.50     -4352.1960   6.0000                                         
     3  0  0.50      -964.9612   2.0000                                         
     3  1  1.50      -803.6179   6.0000                                         
     3  2  2.50      -559.8710  10.0000                                         
     4  0  0.50      -164.3522   2.0000                                         
     4  1  1.50      -114.3756   6.0000                                         
     4  2  2.50       -41.6483  10.0000                                         
     5  0  0.50       -15.1072   2.0000                                         
     5  1  0.50        -5.9526   4.0000                                         
     5  2  1.50        -5.4423   0.0000                                         
     4  3  2.50        -5.4423   0.0000                                         
   Description                                                                  
     l       E           TYP  RCUT    TYP  RCUT                                 
     0    -15.1072389     23  2.300                                             
     0    -16.4678215     23  2.300                                             
     1     -5.9526306     23  2.300                                             
     1     -2.4873968     23  2.300                                             
     2     -5.4423304     23  2.300                                             
     3     -1.3605826     23  2.300                                             
  local pseudopotential read in
  partial core-charges read in
  partial kinetic energy density read in
  atomic valenz-charges read in
  non local Contribution for L=           0  read in
    real space projection operators read in
  non local Contribution for L=           0  read in
    real space projection operators read in
  non local Contribution for L=           1  read in
    real space projection operators read in
  non local Contribution for L=           1  read in
    real space projection operators read in
  non local Contribution for L=           2  read in
    real space projection operators read in
    PAW grid and wavefunctions read in
 
   number of l-projection  operators is LMAX  =           5
   number of lm-projection operators is LMMAX =          13
 
  PAW_PBE Zn 06Sep2000                  :
 energy of atom  1       EATOM=-1748.8345
 kinetic energy error for atom=    0.0107 (will be added to EATOM!!)
  PAW_PBE Te 08Apr2002                  :
 energy of atom  2       EATOM= -223.2721
 kinetic energy error for atom=    0.0011 (will be added to EATOM!!)
 
 
 POSCAR: Zn3 Te3                                 
  positions in direct lattice
  No initial velocities read in
 exchange correlation table for  LEXCH =        8
   RHO(1)=    0.500       N(1)  =     2000
   RHO(2)=  100.500       N(2)  =     4000
 


--------------------------------------------------------------------------------------------------------


 ion  position               nearest neighbor table
   1  0.361  0.021  0.026-   4 2.67   5 2.68   4 2.68   4 2.69
   2  0.661  0.639  0.693-   5 2.67   6 2.68   5 2.68   5 2.69
   3  0.979  0.339  0.360-   6 2.67   4 2.68   6 2.68   6 2.69
   4  0.024  0.353  0.110-   1 2.67   3 2.68   1 2.68   1 2.69
   5  0.329  0.976  0.777-   2 2.67   1 2.68   2 2.68   2 2.69
   6  0.647  0.671  0.444-   3 2.67   2 2.68   3 2.68   3 2.69
 
  LATTYP: Found a hexagonal cell.
 ALAT       =     4.3729999214
 C/A-ratio  =     2.4479762617
  
  Lattice vectors:
  
 A1 = (   4.3730000000,   0.0000000000,   0.0000000000)
 A2 = (  -2.1865000000,   3.7871290000,   0.0000000000)
 A3 = (   0.0000000000,   0.0000000000,  10.7050000000)


Analysis of symmetry for initial positions (statically):
=====================================================================
 Subroutine PRICEL returns:
 Original cell was already a primitive cell.
 

 Routine SETGRP: Setting up the symmetry group for a 
 hexagonal supercell.


 Subroutine GETGRP returns: Found  1 space group operations
 (whereof  1 operations were pure point group operations)
 out of a pool of 24 trial point group operations.


The static configuration has the point symmetry C_1 .


Analysis of symmetry for dynamics (positions and initial velocities):
=====================================================================
 Subroutine PRICEL returns:
 Original cell was already a primitive cell.
 

 Routine SETGRP: Setting up the symmetry group for a 
 hexagonal supercell.


 Subroutine GETGRP returns: Found  1 space group operations
 (whereof  1 operations were pure point group operations)
 out of a pool of 24 trial point group operations.


The dynamic configuration has the point symmetry C_1 .


 Subroutine INISYM returns: Found  1 space group operations
 (whereof  1 operations are pure point group operations),
 and found     1 'primitive' translations

 
 
 KPOINTS: Automatic kpoint scheme                 

Automatic generation of k-mesh.
Space group operators:
 irot       det(A)        alpha          n_x          n_y          n_z        tau_x        tau_y        tau_z
    1     1.000000     0.000000     1.000000     0.000000     0.000000     0.000000     0.000000     0.000000
 
 Subroutine IBZKPT returns following result:
 ===========================================
 
 Found     96 irreducible k-points:
 
 Following reciprocal coordinates:
            Coordinates               Weight
  0.125000  0.125000  0.125000      0.545455
  0.250000 -0.125000  0.125000      0.727273
  0.125000 -0.250000  0.125000      0.727273
 -0.125000 -0.125000  0.125000      0.545455
 -0.250000  0.125000  0.125000      0.727273
 -0.125000  0.250000  0.125000      0.727273
  0.375000  0.125000  0.125000      0.608696
  0.500000 -0.375000  0.125000      0.695652
  0.125000  0.500000  0.125000      0.695652
 -0.375000 -0.125000  0.125000      0.608696
  0.500000  0.375000  0.125000      0.695652
 -0.125000  0.500000  0.125000      0.695652
 -0.125000 -0.375000 -0.125000      0.608696
  0.375000  0.500000 -0.125000      0.695652
  0.500000 -0.125000 -0.125000      0.695652
  0.125000  0.375000 -0.125000      0.608696
 -0.375000  0.500000 -0.125000      0.695652
  0.500000  0.125000 -0.125000      0.695652
 -0.375000  0.125000  0.125000      0.608696
 -0.250000  0.375000  0.125000      0.695652
  0.125000  0.250000  0.125000      0.695652
  0.375000 -0.125000  0.125000      0.608696
  0.250000 -0.375000  0.125000      0.695652
 -0.125000 -0.250000  0.125000      0.695652
 -0.125000  0.375000 -0.125000      0.608696
 -0.375000  0.250000 -0.125000      0.695652
 -0.250000 -0.125000 -0.125000      0.695652
  0.125000 -0.375000 -0.125000      0.608696
  0.375000 -0.250000 -0.125000      0.695652
  0.250000  0.125000 -0.125000      0.695652
 -0.125000  0.125000  0.125000      0.545455
  0.000000  0.125000  0.125000      0.727273
  0.125000 -0.000000  0.125000      0.727273
  0.125000 -0.125000  0.125000      0.545455
  0.000000 -0.125000  0.125000      0.727273
 -0.125000  0.000000  0.125000      0.727273
  0.375000  0.375000  0.125000      0.545455
 -0.250000 -0.375000  0.125000      0.727273
  0.375000  0.250000  0.125000      0.727273
 -0.375000 -0.375000  0.125000      0.545455
  0.250000  0.375000  0.125000      0.727273
 -0.375000 -0.250000  0.125000      0.727273
 -0.375000  0.375000  0.125000      0.545455
  0.000000  0.375000  0.125000      0.727273
  0.375000 -0.000000  0.125000      0.727273
  0.375000 -0.375000  0.125000      0.545455
  0.000000 -0.375000  0.125000      0.727273
 -0.375000  0.000000  0.125000      0.727273
  0.125000  0.125000  0.375000      0.545455
  0.250000 -0.125000  0.375000      0.727273
  0.125000 -0.250000  0.375000      0.727273
 -0.125000 -0.125000  0.375000      0.545455
 -0.250000  0.125000  0.375000      0.727273
 -0.125000  0.250000  0.375000      0.727273
  0.375000  0.125000  0.375000      0.608696
  0.500000 -0.375000  0.375000      0.695652
  0.125000  0.500000  0.375000      0.695652
 -0.375000 -0.125000  0.375000      0.608696
  0.500000  0.375000  0.375000      0.695652
 -0.125000  0.500000  0.375000      0.695652
 -0.125000 -0.375000 -0.375000      0.608696
  0.375000  0.500000 -0.375000      0.695652
  0.500000 -0.125000 -0.375000      0.695652
  0.125000  0.375000 -0.375000      0.608696
 -0.375000  0.500000 -0.375000      0.695652
  0.500000  0.125000 -0.375000      0.695652
 -0.375000  0.125000  0.375000      0.608696
 -0.250000  0.375000  0.375000      0.695652
  0.125000  0.250000  0.375000      0.695652
  0.375000 -0.125000  0.375000      0.608696
  0.250000 -0.375000  0.375000      0.695652
 -0.125000 -0.250000  0.375000      0.695652
 -0.125000  0.375000 -0.375000      0.608696
 -0.375000  0.250000 -0.375000      0.695652
 -0.250000 -0.125000 -0.375000      0.695652
  0.125000 -0.375000 -0.375000      0.608696
  0.375000 -0.250000 -0.375000      0.695652
  0.250000  0.125000 -0.375000      0.695652
 -0.125000  0.125000  0.375000      0.545455
  0.000000  0.125000  0.375000      0.727273
  0.125000 -0.000000  0.375000      0.727273
  0.125000 -0.125000  0.375000      0.545455
  0.000000 -0.125000  0.375000      0.727273
 -0.125000  0.000000  0.375000      0.727273
  0.375000  0.375000  0.375000      0.545455
 -0.250000 -0.375000  0.375000      0.727273
  0.375000  0.250000  0.375000      0.727273
 -0.375000 -0.375000  0.375000      0.545455
  0.250000  0.375000  0.375000      0.727273
 -0.375000 -0.250000  0.375000      0.727273
 -0.375000  0.375000  0.375000      0.545455
  0.000000  0.375000  0.375000      0.727273
  0.375000 -0.000000  0.375000      0.727273
  0.375000 -0.375000  0.375000      0.545455
  0.000000 -0.375000  0.375000      0.727273
 -0.375000  0.000000  0.375000      0.727273
 
 Following cartesian coordinates:
            Coordinates               Weight
  0.028584  0.049510  0.011677      0.545455
  0.057169 -0.000000  0.011677      0.727273
  0.028584 -0.049510  0.011677      0.727273
 -0.028584 -0.049510  0.011677      0.545455
 -0.057169  0.000000  0.011677      0.727273
 -0.028584  0.049510  0.011677      0.727273
  0.085753  0.082516  0.011677      0.608696
  0.114338 -0.033007  0.011677      0.695652
  0.028584  0.148529  0.011677      0.695652
 -0.085753 -0.082516  0.011677      0.608696
  0.114338  0.165033  0.011677      0.695652
 -0.028584  0.115523  0.011677      0.695652
 -0.028584 -0.115523 -0.011677      0.608696
  0.085753  0.181536 -0.011677      0.695652
  0.114338  0.033007 -0.011677      0.695652
  0.028584  0.115523 -0.011677      0.608696
 -0.085753  0.082516 -0.011677      0.695652
  0.114338  0.099020 -0.011677      0.695652
 -0.085753 -0.016503  0.011677      0.608696
 -0.057169  0.066013  0.011677      0.695652
  0.028584  0.082516  0.011677      0.695652
  0.085753  0.016503  0.011677      0.608696
  0.057169 -0.066013  0.011677      0.695652
 -0.028584 -0.082516  0.011677      0.695652
 -0.028584  0.082516 -0.011677      0.608696
 -0.085753  0.016503 -0.011677      0.695652
 -0.057169 -0.066013 -0.011677      0.695652
  0.028584 -0.082516 -0.011677      0.608696
  0.085753 -0.016503 -0.011677      0.695652
  0.057169  0.066013 -0.011677      0.695652
 -0.028584  0.016503  0.011677      0.545455
  0.000000  0.033007  0.011677      0.727273
  0.028584  0.016503  0.011677      0.727273
  0.028584 -0.016503  0.011677      0.545455
  0.000000 -0.033007  0.011677      0.727273
 -0.028584 -0.016503  0.011677      0.727273
  0.085753  0.148529  0.011677      0.545455
 -0.057169 -0.132026  0.011677      0.727273
  0.085753  0.115523  0.011677      0.727273
 -0.085753 -0.148529  0.011677      0.545455
  0.057169  0.132026  0.011677      0.727273
 -0.085753 -0.115523  0.011677      0.727273
 -0.085753  0.049510  0.011677      0.545455
  0.000000  0.099020  0.011677      0.727273
  0.085753  0.049510  0.011677      0.727273
  0.085753 -0.049510  0.011677      0.545455
  0.000000 -0.099020  0.011677      0.727273
 -0.085753 -0.049510  0.011677      0.727273
  0.028584  0.049510  0.035030      0.545455
  0.057169 -0.000000  0.035030      0.727273
  0.028584 -0.049510  0.035030      0.727273
 -0.028584 -0.049510  0.035030      0.545455
 -0.057169  0.000000  0.035030      0.727273
 -0.028584  0.049510  0.035030      0.727273
  0.085753  0.082516  0.035030      0.608696
  0.114338 -0.033007  0.035030      0.695652
  0.028584  0.148529  0.035030      0.695652
 -0.085753 -0.082516  0.035030      0.608696
  0.114338  0.165033  0.035030      0.695652
 -0.028584  0.115523  0.035030      0.695652
 -0.028584 -0.115523 -0.035030      0.608696
  0.085753  0.181536 -0.035030      0.695652
  0.114338  0.033007 -0.035030      0.695652
  0.028584  0.115523 -0.035030      0.608696
 -0.085753  0.082516 -0.035030      0.695652
  0.114338  0.099020 -0.035030      0.695652
 -0.085753 -0.016503  0.035030      0.608696
 -0.057169  0.066013  0.035030      0.695652
  0.028584  0.082516  0.035030      0.695652
  0.085753  0.016503  0.035030      0.608696
  0.057169 -0.066013  0.035030      0.695652
 -0.028584 -0.082516  0.035030      0.695652
 -0.028584  0.082516 -0.035030      0.608696
 -0.085753  0.016503 -0.035030      0.695652
 -0.057169 -0.066013 -0.035030      0.695652
  0.028584 -0.082516 -0.035030      0.608696
  0.085753 -0.016503 -0.035030      0.695652
  0.057169  0.066013 -0.035030      0.695652
 -0.028584  0.016503  0.035030      0.545455
  0.000000  0.033007  0.035030      0.727273
  0.028584  0.016503  0.035030      0.727273
  0.028584 -0.016503  0.035030      0.545455
  0.000000 -0.033007  0.035030      0.727273
 -0.028584 -0.016503  0.035030      0.727273
  0.085753  0.148529  0.035030      0.545455
 -0.057169 -0.132026  0.035030      0.727273
  0.085753  0.115523  0.035030      0.727273
 -0.085753 -0.148529  0.035030      0.545455
  0.057169  0.132026  0.035030      0.727273
 -0.085753 -0.115523  0.035030      0.727273
 -0.085753  0.049510  0.035030      0.545455
  0.000000  0.099020  0.035030      0.727273
  0.085753  0.049510  0.035030      0.727273
  0.085753 -0.049510  0.035030      0.545455
  0.000000 -0.099020  0.035030      0.727273
 -0.085753 -0.049510  0.035030      0.727273
 

 ----------------------------------------------------------------------------- 
|                                                                             |
|           W    W    AA    RRRRR   N    N  II  N    N   GGGG   !!!           |
|           W    W   A  A   R    R  NN   N  II  NN   N  G    G  !!!           |
|           W    W  A    A  R    R  N N  N  II  N N  N  G       !!!           |
|           W WW W  AAAAAA  RRRRR   N  N N  II  N  N N  G  GGG   !            |
|           WW  WW  A    A  R   R   N   NN  II  N   NN  G    G                |
|           W    W  A    A  R    R  N    N  II  N    N   GGGG   !!!           |
|                                                                             |
|      The number of bands has been changed from the values supplied          |
|      in the INCAR file. This is a result of running the parallel version.   |
|      The orbitals not found in the WAVECAR file will be initialized with    |
|      random numbers, which is usually adequate. For correlated              |
|      calculations, however, you should redo the groundstate calculation.    |
|      I found NBANDS    =        8  now  NBANDS  =      64                   |
|                                                                             |
 ----------------------------------------------------------------------------- 



--------------------------------------------------------------------------------------------------------




 Dimension of arrays:
   k-points           NKPTS =     96   k-points in BZ     NKDIM =     96   number of bands    NBANDS=     64
   number of dos      NEDOS =    301   number of ions     NIONS =      6
   non local maximal  LDIM  =      6   non local SUM 2l+1 LMDIM =     18
   total plane-waves  NPLWV =  31104
   max r-space proj   IRMAX =      1   max aug-charges    IRDMAX=  10403
   dimension x,y,z NGX =    24 NGY =   24 NGZ =   54
   dimension x,y,z NGXF=    48 NGYF=   48 NGZF=  108
   support grid    NGXF=    48 NGYF=   48 NGZF=  108
   ions per type =               3   3
   NGX,Y,Z   is equivalent  to a cutoff of   9.12,  9.12,  8.39 a.u.
   NGXF,Y,Z  is equivalent  to a cutoff of  18.25, 18.25, 16.77 a.u.

 SYSTEM =  unknown system                          
 POSCAR =  Zn3 Te3                                 

 Startparameter for this run:
   NWRITE =      2    write-flag & timer
   PREC   = normal    normal or accurate (medium, high low for compatibility)
   ISTART =      0    job   : 0-new  1-cont  2-samecut
   ICHARG =      2    charge: 1-file 2-atom 10-const
   ISPIN  =      1    spin polarized calculation?
   LNONCOLLINEAR =      F non collinear calculations
   LSORBIT =      F    spin-orbit coupling
   INIWAV =      1    electr: 0-lowe 1-rand  2-diag
   LASPH  =      F    aspherical Exc in radial PAW
   METAGGA=      F    non-selfconsistent MetaGGA calc.

 Electronic Relaxation 1
   ENCUT  =  400.0 eV  29.40 Ry    5.42 a.u.   7.13  7.13 17.46*2*pi/ulx,y,z
   ENINI  =  400.0     initial cutoff
   ENAUG  =  575.9 eV  augmentation charge cutoff
   NELM   =     60;   NELMIN=  2; NELMDL= -5     # of ELM steps 
   EDIFF  = 0.4E-03   stopping-criterion for ELM
   LREAL  =      F    real-space projection
   NLSPLINE    = F    spline interpolate recip. space projectors
   LCOMPAT=      F    compatible to vasp.4.4
   GGA_COMPAT  = T    GGA compatible to vasp.4.4-vasp.4.6
   LMAXPAW     = -100 max onsite density
   LMAXMIX     =    2 max onsite mixed and CHGCAR
   VOSKOWN=      0    Vosko Wilk Nusair interpolation
   ROPT   =    0.00000   0.00000
 Ionic relaxation
   EDIFFG = -.1E-01   stopping-criterion for IOM
   NSW    =     15    number of steps for IOM
   NBLOCK =      1;   KBLOCK =     15    inner block; outer block 
   IBRION =      1    ionic relax: 0-MD 1-quasi-New 2-CG
   NFREE  =      0    steps in history (QN), initial steepest desc. (CG)
   ISIF   =      3    stress and relaxation
   IWAVPR =     11    prediction:  0-non 1-charg 2-wave 3-comb
   ISYM   =      2    0-nonsym 1-usesym 2-fastsym
   LCORR  =      T    Harris-Foulkes like correction to forces

   POTIM  = 0.5000    time-step for ionic-motion
   TEIN   =    0.0    initial temperature
   TEBEG  =    0.0;   TEEND  =   0.0 temperature during run
   SMASS  =  -3.00    Nose mass-parameter (am)
   estimated Nose-frequenzy (Omega)   =  0.10E-29 period in steps =****** mass=  -0.437E-27a.u.
   SCALEE = 1.0000    scale energy and forces
   NPACO  =    256;   APACO  = 16.0  distance and # of slots for P.C.
   PSTRESS=    0.0 pullay stress

  Mass of Ions in am
   POMASS =  65.39127.60
  Ionic Valenz
   ZVAL   =  12.00  6.00
  Atomic Wigner-Seitz radii
   RWIGS  =  -1.00 -1.00
  virtual crystal weights 
   VCA    =   1.00  1.00
   NELECT =      54.0000    total number of electrons
   NUPDOWN=      -1.0000    fix difference up-down

 DOS related values:
   EMIN   =  10.00;   EMAX   =-10.00  energy-range for DOS
   EFERMI =   0.00
   ISMEAR =     0;   SIGMA  =   0.20  broadening in eV -4-tet -1-fermi 0-gaus

 Electronic relaxation 2 (details)
   IALGO  =     38    algorithm
   LDIAG  =      T    sub-space diagonalisation (order eigenvalues)
   LSUBROT=      F    optimize rotation matrix (better conditioning)
   TURBO    =      0    0=normal 1=particle mesh
   IRESTART =      0    0=no restart 2=restart with 2 vectors
   NREBOOT  =      0    no. of reboots
   NMIN     =      0    reboot dimension
   EREF     =   0.00    reference energy to select bands
   IMIX   =      4    mixing-type and parameters
     AMIX     =   0.40;   BMIX     =  1.00
     AMIX_MAG =   1.60;   BMIX_MAG =  1.00
     AMIN     =   0.10
     WC   =   100.;   INIMIX=   1;  MIXPRE=   1;  MAXMIX= -45

 Intra band minimization:
   WEIMIN = 0.0010     energy-eigenvalue tresh-hold
   EBREAK =  0.16E-05  absolut break condition
   DEPER  =   0.30     relativ break condition  

   TIME   =   0.40     timestep for ELM

  volume/ion in A,a.u.               =      29.55       199.40
  Fermi-wavevector in a.u.,A,eV,Ry     =   1.101490  2.081515 16.507688  1.213281
  Thomas-Fermi vector in A             =   2.237918
 
 Write flags
   LWAVE        =      T    write WAVECAR
   LDOWNSAMPLE  =      F    k-point downsampling of WAVECAR
   LCHARG       =      T    write CHGCAR
   LVTOT        =      F    write LOCPOT, total local potential
   LVHAR        =      F    write LOCPOT, Hartree potential only
   LELF         =      F    write electronic localiz. function (ELF)
   LORBIT       =      0    0 simple, 1 ext, 2 COOP (PROOUT), +10 PAW based schemes


 Dipole corrections
   LMONO  =      F    monopole corrections only (constant potential shift)
   LDIPOL =      F    correct potential (dipole corrections)
   IDIPOL =      0    1-x, 2-y, 3-z, 4-all directions 
   EPSILON=  1.0000000 bulk dielectric constant

 Exchange correlation treatment:
   GGA     =    --    GGA type
   LEXCH   =     8    internal setting for exchange type
   VOSKOWN=      0    Vosko Wilk Nusair interpolation
   LHFCALC =     F    Hartree Fock is set to
   LHFONE  =     F    Hartree Fock one center treatment
   AEXX    =    0.0000 exact exchange contribution

 Linear response parameters
   LEPSILON=     F    determine dielectric tensor
   LRPA    =     F    only Hartree local field effects (RPA)
   LNABLA  =     F    use nabla operator in PAW spheres
   LVEL    =     F    velocity operator in full k-point grid
   LINTERFAST=   F  fast interpolation
   KINTER  =     0    interpolate to denser k-point grid
   CSHIFT  =0.1000    complex shift for real part using Kramers Kronig
   OMEGAMAX=  -1.0    maximum frequency
   DEG_THRESHOLD= 0.2000000E-02 threshold for treating states as degnerate
   RTIME   =   -0.100 relaxation time in fs
  (WPLASMAI=    0.000 imaginary part of plasma frequency in eV, 0.658/RTIME)
   DFIELD  = 0.0000000 0.0000000 0.0000000 field for delta impulse in time
 
 Orbital magnetization related:
   ORBITALMAG=     F  switch on orbital magnetization
   LCHIMAG   =     F  perturbation theory with respect to B field
   DQ        =  0.001000  dq finite difference perturbation B field
   LLRAUG    =     F  two centre corrections for induced B field



--------------------------------------------------------------------------------------------------------


 quasi-Newton-method for relaxation of ions
 charge density and potential will be updated during run
 non-spin polarized calculation
 Variant of blocked Davidson
 Davidson routine will perform the subspace rotation
 perform sub-space diagonalisation
    after iterative eigenvector-optimisation
 modified Broyden-mixing scheme, WC =      100.0
 initial mixing is a Kerker type mixing with AMIX =  0.4000 and BMIX =      1.0000
 Hartree-type preconditioning will be used
 using additional bands           37
 reciprocal scheme for non local part
 use partial core corrections
 calculate Harris-corrections to forces 
   (improved forces if not selfconsistent)
 use gradient corrections 
 use of overlap-Matrix (Vanderbilt PP)
 Gauss-broadening in eV      SIGMA  =   0.20


--------------------------------------------------------------------------------------------------------


  energy-cutoff  :      400.00
  volume of cell :      177.29
      direct lattice vectors                 reciprocal lattice vectors
     4.373000000  0.000000000  0.000000000     0.228675966  0.132026134  0.000000000
    -2.186500000  3.787129000  0.000000000     0.000000000  0.264052268  0.000000000
     0.000000000  0.000000000 10.705000000     0.000000000  0.000000000  0.093414292

  length of vectors
     4.373000000  4.372999921 10.705000000     0.264052263  0.264052268  0.093414292


 
 k-points in units of 2pi/SCALE and weight: Automatic kpoint scheme                 
   0.02858450  0.04950980  0.01167679       0.009
   0.05716899  0.00000000  0.01167679       0.011
   0.02858450 -0.04950980  0.01167679       0.011
  -0.02858450 -0.04950980  0.01167679       0.009
  -0.05716899 -0.00000000  0.01167679       0.011
  -0.02858450  0.04950980  0.01167679       0.011
   0.08575349  0.08251633  0.01167679       0.010
   0.11433798 -0.03300653  0.01167679       0.011
   0.02858450  0.14852940  0.01167679       0.011
  -0.08575349 -0.08251633  0.01167679       0.010
   0.11433798  0.16503267  0.01167679       0.011
  -0.02858450  0.11552287  0.01167679       0.011
  -0.02858450 -0.11552287 -0.01167679       0.010
   0.08575349  0.18153593 -0.01167679       0.011
   0.11433798  0.03300653 -0.01167679       0.011
   0.02858450  0.11552287 -0.01167679       0.010
  -0.08575349  0.08251633 -0.01167679       0.011
   0.11433798  0.09901960 -0.01167679       0.011
  -0.08575349 -0.01650327  0.01167679       0.010
  -0.05716899  0.06601307  0.01167679       0.011
   0.02858450  0.08251633  0.01167679       0.011
   0.08575349  0.01650327  0.01167679       0.010
   0.05716899 -0.06601307  0.01167679       0.011
  -0.02858450 -0.08251633  0.01167679       0.011
  -0.02858450  0.08251633 -0.01167679       0.010
  -0.08575349  0.01650327 -0.01167679       0.011
  -0.05716899 -0.06601307 -0.01167679       0.011
   0.02858450 -0.08251633 -0.01167679       0.010
   0.08575349 -0.01650327 -0.01167679       0.011
   0.05716899  0.06601307 -0.01167679       0.011
  -0.02858450  0.01650327  0.01167679       0.009
   0.00000000  0.03300653  0.01167679       0.011
   0.02858450  0.01650327  0.01167679       0.011
   0.02858450 -0.01650327  0.01167679       0.009
   0.00000000 -0.03300653  0.01167679       0.011
  -0.02858450 -0.01650327  0.01167679       0.011
   0.08575349  0.14852940  0.01167679       0.009
  -0.05716899 -0.13202613  0.01167679       0.011
   0.08575349  0.11552287  0.01167679       0.011
  -0.08575349 -0.14852940  0.01167679       0.009
   0.05716899  0.13202613  0.01167679       0.011
  -0.08575349 -0.11552287  0.01167679       0.011
  -0.08575349  0.04950980  0.01167679       0.009
   0.00000000  0.09901960  0.01167679       0.011
   0.08575349  0.04950980  0.01167679       0.011
   0.08575349 -0.04950980  0.01167679       0.009
   0.00000000 -0.09901960  0.01167679       0.011
  -0.08575349 -0.04950980  0.01167679       0.011
   0.02858450  0.04950980  0.03503036       0.009
   0.05716899  0.00000000  0.03503036       0.011
   0.02858450 -0.04950980  0.03503036       0.011
  -0.02858450 -0.04950980  0.03503036       0.009
  -0.05716899 -0.00000000  0.03503036       0.011
  -0.02858450  0.04950980  0.03503036       0.011
   0.08575349  0.08251633  0.03503036       0.010
   0.11433798 -0.03300653  0.03503036       0.011
   0.02858450  0.14852940  0.03503036       0.011
  -0.08575349 -0.08251633  0.03503036       0.010
   0.11433798  0.16503267  0.03503036       0.011
  -0.02858450  0.11552287  0.03503036       0.011
  -0.02858450 -0.11552287 -0.03503036       0.010
   0.08575349  0.18153593 -0.03503036       0.011
   0.11433798  0.03300653 -0.03503036       0.011
   0.02858450  0.11552287 -0.03503036       0.010
  -0.08575349  0.08251633 -0.03503036       0.011
   0.11433798  0.09901960 -0.03503036       0.011
  -0.08575349 -0.01650327  0.03503036       0.010
  -0.05716899  0.06601307  0.03503036       0.011
   0.02858450  0.08251633  0.03503036       0.011
   0.08575349  0.01650327  0.03503036       0.010
   0.05716899 -0.06601307  0.03503036       0.011
  -0.02858450 -0.08251633  0.03503036       0.011
  -0.02858450  0.08251633 -0.03503036       0.010
  -0.08575349  0.01650327 -0.03503036       0.011
  -0.05716899 -0.06601307 -0.03503036       0.011
   0.02858450 -0.08251633 -0.03503036       0.010
   0.08575349 -0.01650327 -0.03503036       0.011
   0.05716899  0.06601307 -0.03503036       0.011
  -0.02858450  0.01650327  0.03503036       0.009
   0.00000000  0.03300653  0.03503036       0.011
   0.02858450  0.01650327  0.03503036       0.011
   0.02858450 -0.01650327  0.03503036       0.009
   0.00000000 -0.03300653  0.03503036       0.011
  -0.02858450 -0.01650327  0.03503036       0.011
   0.08575349  0.14852940  0.03503036       0.009
  -0.05716899 -0.13202613  0.03503036       0.011
   0.08575349  0.11552287  0.03503036       0.011
  -0.08575349 -0.14852940  0.03503036       0.009
   0.05716899  0.13202613  0.03503036       0.011
  -0.08575349 -0.11552287  0.03503036       0.011
  -0.08575349  0.04950980  0.03503036       0.009
   0.00000000  0.09901960  0.03503036       0.011
   0.08575349  0.04950980  0.03503036       0.011
   0.08575349 -0.04950980  0.03503036       0.009
   0.00000000 -0.09901960  0.03503036       0.011
  -0.08575349 -0.04950980  0.03503036       0.011
 
 k-points in reciprocal lattice and weights: Automatic kpoint scheme                 
   0.12500000  0.12500000  0.12500000       0.009
   0.25000000 -0.12500000  0.12500000       0.011
   0.12500000 -0.25000000  0.12500000       0.011
  -0.12500000 -0.12500000  0.12500000       0.009
  -0.25000000  0.12500000  0.12500000       0.011
  -0.12500000  0.25000000  0.12500000       0.011
   0.37500000  0.12500000  0.12500000       0.010
   0.50000000 -0.37500000  0.12500000       0.011
   0.12500000  0.50000000  0.12500000       0.011
  -0.37500000 -0.12500000  0.12500000       0.010
   0.50000000  0.37500000  0.12500000       0.011
  -0.12500000  0.50000000  0.12500000       0.011
  -0.12500000 -0.37500000 -0.12500000       0.010
   0.37500000  0.50000000 -0.12500000       0.011
   0.50000000 -0.12500000 -0.12500000       0.011
   0.12500000  0.37500000 -0.12500000       0.010
  -0.37500000  0.50000000 -0.12500000       0.011
   0.50000000  0.12500000 -0.12500000       0.011
  -0.37500000  0.12500000  0.12500000       0.010
  -0.25000000  0.37500000  0.12500000       0.011
   0.12500000  0.25000000  0.12500000       0.011
   0.37500000 -0.12500000  0.12500000       0.010
   0.25000000 -0.37500000  0.12500000       0.011
  -0.12500000 -0.25000000  0.12500000       0.011
  -0.12500000  0.37500000 -0.12500000       0.010
  -0.37500000  0.25000000 -0.12500000       0.011
  -0.25000000 -0.12500000 -0.12500000       0.011
   0.12500000 -0.37500000 -0.12500000       0.010
   0.37500000 -0.25000000 -0.12500000       0.011
   0.25000000  0.12500000 -0.12500000       0.011
  -0.12500000  0.12500000  0.12500000       0.009
   0.00000000  0.12500000  0.12500000       0.011
   0.12500000 -0.00000000  0.12500000       0.011
   0.12500000 -0.12500000  0.12500000       0.009
   0.00000000 -0.12500000  0.12500000       0.011
  -0.12500000  0.00000000  0.12500000       0.011
   0.37500000  0.37500000  0.12500000       0.009
  -0.25000000 -0.37500000  0.12500000       0.011
   0.37500000  0.25000000  0.12500000       0.011
  -0.37500000 -0.37500000  0.12500000       0.009
   0.25000000  0.37500000  0.12500000       0.011
  -0.37500000 -0.25000000  0.12500000       0.011
  -0.37500000  0.37500000  0.12500000       0.009
   0.00000000  0.37500000  0.12500000       0.011
   0.37500000 -0.00000000  0.12500000       0.011
   0.37500000 -0.37500000  0.12500000       0.009
   0.00000000 -0.37500000  0.12500000       0.011
  -0.37500000  0.00000000  0.12500000       0.011
   0.12500000  0.12500000  0.37500000       0.009
   0.25000000 -0.12500000  0.37500000       0.011
   0.12500000 -0.25000000  0.37500000       0.011
  -0.12500000 -0.12500000  0.37500000       0.009
  -0.25000000  0.12500000  0.37500000       0.011
  -0.12500000  0.25000000  0.37500000       0.011
   0.37500000  0.12500000  0.37500000       0.010
   0.50000000 -0.37500000  0.37500000       0.011
   0.12500000  0.50000000  0.37500000       0.011
  -0.37500000 -0.12500000  0.37500000       0.010
   0.50000000  0.37500000  0.37500000       0.011
  -0.12500000  0.50000000  0.37500000       0.011
  -0.12500000 -0.37500000 -0.37500000       0.010
   0.37500000  0.50000000 -0.37500000       0.011
   0.50000000 -0.12500000 -0.37500000       0.011
   0.12500000  0.37500000 -0.37500000       0.010
  -0.37500000  0.50000000 -0.37500000       0.011
   0.50000000  0.12500000 -0.37500000       0.011
  -0.37500000  0.12500000  0.37500000       0.010
  -0.25000000  0.37500000  0.37500000       0.011
   0.12500000  0.25000000  0.37500000       0.011
   0.37500000 -0.12500000  0.37500000       0.010
   0.25000000 -0.37500000  0.37500000       0.011
  -0.12500000 -0.25000000  0.37500000       0.011
  -0.12500000  0.37500000 -0.37500000       0.010
  -0.37500000  0.25000000 -0.37500000       0.011
  -0.25000000 -0.12500000 -0.37500000       0.011
   0.12500000 -0.37500000 -0.37500000       0.010
   0.37500000 -0.25000000 -0.37500000       0.011
   0.25000000  0.12500000 -0.37500000       0.011
  -0.12500000  0.12500000  0.37500000       0.009
   0.00000000  0.12500000  0.37500000       0.011
   0.12500000 -0.00000000  0.37500000       0.011
   0.12500000 -0.12500000  0.37500000       0.009
   0.00000000 -0.12500000  0.37500000       0.011
  -0.12500000  0.00000000  0.37500000       0.011
   0.37500000  0.37500000  0.37500000       0.009
  -0.25000000 -0.37500000  0.37500000       0.011
   0.37500000  0.25000000  0.37500000       0.011
  -0.37500000 -0.37500000  0.37500000       0.009
   0.25000000  0.37500000  0.37500000       0.011
  -0.37500000 -0.25000000  0.37500000       0.011
  -0.37500000  0.37500000  0.37500000       0.009
   0.00000000  0.37500000  0.37500000       0.011
   0.37500000 -0.00000000  0.37500000       0.011
   0.37500000 -0.37500000  0.37500000       0.009
   0.00000000 -0.37500000  0.37500000       0.011
  -0.37500000  0.00000000  0.37500000       0.011
 
 position of ions in fractional coordinates (direct lattice) 
   0.36060000  0.02120000  0.02650000
   0.66060000  0.63940000  0.69320000
   0.97880000  0.33940000  0.35980000
   0.02370000  0.35300000  0.11020000
   0.32930000  0.97630000  0.77680000
   0.64700000  0.67070000  0.44350000
 
 position of ions in cartesian coordinates  (Angst):
   1.53055000  0.08028713  0.28368250
   1.49075570  2.42149028  7.42070600
   3.53819430  1.28535158  3.85165900
  -0.66819440  1.33685654  1.17969100
  -0.69465105  3.69737404  8.31564400
   1.36284545  2.54002742  4.74766750
 


--------------------------------------------------------------------------------------------------------


 k-point  1 :   0.1250 0.1250 0.1250  plane waves:    3203
 k-point  2 :   0.2500-0.1250 0.1250  plane waves:    3203
 k-point  3 :   0.1250-0.2500 0.1250  plane waves:    3203
 k-point  4 :  -0.1250-0.1250 0.1250  plane waves:    3203
 k-point  5 :  -0.2500 0.1250 0.1250  plane waves:    3203
 k-point  6 :  -0.1250 0.2500 0.1250  plane waves:    3203
 k-point  7 :   0.3750 0.1250 0.1250  plane waves:    3221
 k-point  8 :   0.5000-0.3750 0.1250  plane waves:    3221
 k-point  9 :   0.1250 0.5000 0.1250  plane waves:    3221
 k-point 10 :  -0.3750-0.1250 0.1250  plane waves:    3221
 k-point 11 :   0.5000 0.3750 0.1250  plane waves:    3221
 k-point 12 :  -0.1250 0.5000 0.1250  plane waves:    3221
 k-point 13 :  -0.1250-0.3750-0.1250  plane waves:    3221
 k-point 14 :   0.3750 0.5000-0.1250  plane waves:    3221
 k-point 15 :   0.5000-0.1250-0.1250  plane waves:    3221
 k-point 16 :   0.1250 0.3750-0.1250  plane waves:    3221
 k-point 17 :  -0.3750 0.5000-0.1250  plane waves:    3221
 k-point 18 :   0.5000 0.1250-0.1250  plane waves:    3221
 k-point 19 :  -0.3750 0.1250 0.1250  plane waves:    3218
 k-point 20 :  -0.2500 0.3750 0.1250  plane waves:    3218
 k-point 21 :   0.1250 0.2500 0.1250  plane waves:    3218
 k-point 22 :   0.3750-0.1250 0.1250  plane waves:    3218
 k-point 23 :   0.2500-0.3750 0.1250  plane waves:    3218
 k-point 24 :  -0.1250-0.2500 0.1250  plane waves:    3218
 k-point 25 :  -0.1250 0.3750-0.1250  plane waves:    3218
 k-point 26 :  -0.3750 0.2500-0.1250  plane waves:    3218
 k-point 27 :  -0.2500-0.1250-0.1250  plane waves:    3218
 k-point 28 :   0.1250-0.3750-0.1250  plane waves:    3218
 k-point 29 :   0.3750-0.2500-0.1250  plane waves:    3218
 k-point 30 :   0.2500 0.1250-0.1250  plane waves:    3218
 k-point 31 :  -0.1250 0.1250 0.1250  plane waves:    3211
 k-point 32 :   0.0000 0.1250 0.1250  plane waves:    3211
 k-point 33 :   0.1250-0.0000 0.1250  plane waves:    3211
 k-point 34 :   0.1250-0.1250 0.1250  plane waves:    3211
 k-point 35 :   0.0000-0.1250 0.1250  plane waves:    3211
 k-point 36 :  -0.1250 0.0000 0.1250  plane waves:    3211
 k-point 37 :   0.3750 0.3750 0.1250  plane waves:    3237
 k-point 38 :  -0.2500-0.3750 0.1250  plane waves:    3237
 k-point 39 :   0.3750 0.2500 0.1250  plane waves:    3237
 k-point 40 :  -0.3750-0.3750 0.1250  plane waves:    3237
 k-point 41 :   0.2500 0.3750 0.1250  plane waves:    3237
 k-point 42 :  -0.3750-0.2500 0.1250  plane waves:    3237
 k-point 43 :  -0.3750 0.3750 0.1250  plane waves:    3222
 k-point 44 :   0.0000 0.3750 0.1250  plane waves:    3222
 k-point 45 :   0.3750-0.0000 0.1250  plane waves:    3222
 k-point 46 :   0.3750-0.3750 0.1250  plane waves:    3222
 k-point 47 :   0.0000-0.3750 0.1250  plane waves:    3222
 k-point 48 :  -0.3750 0.0000 0.1250  plane waves:    3222
 k-point 49 :   0.1250 0.1250 0.3750  plane waves:    3205
 k-point 50 :   0.2500-0.1250 0.3750  plane waves:    3205
 k-point 51 :   0.1250-0.2500 0.3750  plane waves:    3205
 k-point 52 :  -0.1250-0.1250 0.3750  plane waves:    3205
 k-point 53 :  -0.2500 0.1250 0.3750  plane waves:    3205
 k-point 54 :  -0.1250 0.2500 0.3750  plane waves:    3205
 k-point 55 :   0.3750 0.1250 0.3750  plane waves:    3230
 k-point 56 :   0.5000-0.3750 0.3750  plane waves:    3230
 k-point 57 :   0.1250 0.5000 0.3750  plane waves:    3230
 k-point 58 :  -0.3750-0.1250 0.3750  plane waves:    3230
 k-point 59 :   0.5000 0.3750 0.3750  plane waves:    3230
 k-point 60 :  -0.1250 0.5000 0.3750  plane waves:    3230
 k-point 61 :  -0.1250-0.3750-0.3750  plane waves:    3230
 k-point 62 :   0.3750 0.5000-0.3750  plane waves:    3230
 k-point 63 :   0.5000-0.1250-0.3750  plane waves:    3230
 k-point 64 :   0.1250 0.3750-0.3750  plane waves:    3230
 k-point 65 :  -0.3750 0.5000-0.3750  plane waves:    3230
 k-point 66 :   0.5000 0.1250-0.3750  plane waves:    3230
 k-point 67 :  -0.3750 0.1250 0.3750  plane waves:    3219
 k-point 68 :  -0.2500 0.3750 0.3750  plane waves:    3219
 k-point 69 :   0.1250 0.2500 0.3750  plane waves:    3219
 k-point 70 :   0.3750-0.1250 0.3750  plane waves:    3219
 k-point 71 :   0.2500-0.3750 0.3750  plane waves:    3219
 k-point 72 :  -0.1250-0.2500 0.3750  plane waves:    3219
 k-point 73 :  -0.1250 0.3750-0.3750  plane waves:    3219
 k-point 74 :  -0.3750 0.2500-0.3750  plane waves:    3219
 k-point 75 :  -0.2500-0.1250-0.3750  plane waves:    3219
 k-point 76 :   0.1250-0.3750-0.3750  plane waves:    3219
 k-point 77 :   0.3750-0.2500-0.3750  plane waves:    3219
 k-point 78 :   0.2500 0.1250-0.3750  plane waves:    3219
 k-point 79 :  -0.1250 0.1250 0.3750  plane waves:    3207
 k-point 80 :   0.0000 0.1250 0.3750  plane waves:    3207
 k-point 81 :   0.1250-0.0000 0.3750  plane waves:    3207
 k-point 82 :   0.1250-0.1250 0.3750  plane waves:    3207
 k-point 83 :   0.0000-0.1250 0.3750  plane waves:    3207
 k-point 84 :  -0.1250 0.0000 0.3750  plane waves:    3207
 k-point 85 :   0.3750 0.3750 0.3750  plane waves:    3239
 k-point 86 :  -0.2500-0.3750 0.3750  plane waves:    3239
 k-point 87 :   0.3750 0.2500 0.3750  plane waves:    3239
 k-point 88 :  -0.3750-0.3750 0.3750  plane waves:    3239
 k-point 89 :   0.2500 0.3750 0.3750  plane waves:    3239
 k-point 90 :  -0.3750-0.2500 0.3750  plane waves:    3239
 k-point 91 :  -0.3750 0.3750 0.3750  plane waves:    3214
 k-point 92 :   0.0000 0.3750 0.3750  plane waves:    3214
 k-point 93 :   0.3750-0.0000 0.3750  plane waves:    3214
 k-point 94 :   0.3750-0.3750 0.3750  plane waves:    3214
 k-point 95 :   0.0000-0.3750 0.3750  plane waves:    3214
 k-point 96 :  -0.3750 0.0000 0.3750  plane waves:    3214

 maximum and minimum number of plane-waves per node :      3239     3203

 maximum number of plane-waves:      3239
 maximum index in each direction: 
   IXMAX=    7   IYMAX=    7   IZMAX=   17
   IXMIN=   -7   IYMIN=   -7   IZMIN=  -17


 serial   3D FFT for wavefunctions
 parallel 3D FFT for charge:
    minimum data exchange during FFTs selected (reduces bandwidth)


 total amount of memory used by VASP MPI-rank0   127716. kBytes
=======================================================================

   base      :      30000. kBytes
   nonl-proj :      90556. kBytes
   fftplans  :        310. kBytes
   grid      :       1547. kBytes
   one-center:         93. kBytes
   wavefun   :       5210. kBytes
 
     INWAV:  cpu time    0.0001: real time    0.0001
 Broyden mixing: mesh for mixing (old mesh)
   NGX = 15   NGY = 15   NGZ = 35
  (NGX  = 48   NGY  = 48   NGZ  =108)
  gives a total of   7875 points

 initial charge density was supplied:
 charge density of overlapping atoms calculated
 number of electron      54.0000000 magnetization 
 keeping initial charge density in first step


--------------------------------------------------------------------------------------------------------


 Maximum index for augmentation-charges          488 (set IRDMAX)


--------------------------------------------------------------------------------------------------------


 First call to EWALD:  gamma=   0.316
 Maximum number of real-space cells 4x 4x 2
 Maximum number of reciprocal cells 2x 2x 5

    FEWALD:  cpu time    0.0053: real time    0.0054


--------------------------------------- Iteration      1(   1)  ---------------------------------------


    POTLOK:  cpu time    0.0341: real time    0.0438
    SETDIJ:  cpu time    0.0117: real time    0.0125
     EDDAV:  cpu time   16.7486: real time   16.9655
       DOS:  cpu time    0.0318: real time    0.0323
    --------------------------------------------
      LOOP:  cpu time   16.8262: real time   17.0542

 eigenvalue-minimisations  : 12288
 total energy-change (2. order) : 0.6554118E+02  (-0.2345661E+04)
 number of electron      54.0000000 magnetization 
 augmentation part       54.0000000 magnetization 

 Free energy of the ion-electron system (eV)
  ---------------------------------------------------
  alpha Z        PSCENC =       124.48026401
  Ewald energy   TEWEN  =     -3287.13745895
  -Hartree energ DENC   =     -2310.80269432
  -exchange      EXHF   =         0.00000000
  -V(xc)+E(xc)   XCENC  =        86.31104968
  PAW double counting   =      4988.91998590    -5406.16159368
  entropy T*S    EENTRO =        -0.01309219
  eigenvalues    EBANDS =       -46.33956304
  atomic energy  EATOM  =      5916.28428415
  Solvation  Ediel_sol  =         0.00000000
  ---------------------------------------------------
  free energy    TOTEN  =        65.54118156 eV

  energy without entropy =       65.55427375  energy(sigma->0) =       65.54772766


--------------------------------------------------------------------------------------------------------




--------------------------------------- Iteration      1(   2)  ---------------------------------------


     EDDAV:  cpu time   39.0565: real time   39.8850
       DOS:  cpu time    0.0203: real time    0.0203
    --------------------------------------------
      LOOP:  cpu time   39.0767: real time   39.9052

 eigenvalue-minimisations  : 17856
 total energy-change (2. order) :-0.8089278E+02  (-0.8075556E+02)
 number of electron      54.0000000 magnetization 
 augmentation part       54.0000000 magnetization 

 Free energy of the ion-electron system (eV)
  ---------------------------------------------------
  alpha Z        PSCENC =       124.48026401
  Ewald energy   TEWEN  =     -3287.13745895
  -Hartree energ DENC   =     -2310.80269432
  -exchange      EXHF   =         0.00000000
  -V(xc)+E(xc)   XCENC  =        86.31104968
  PAW double counting   =      4988.91998590    -5406.16159368
  entropy T*S    EENTRO =        -0.00000000
  eigenvalues    EBANDS =      -127.24543214
  atomic energy  EATOM  =      5916.28428415
  Solvation  Ediel_sol  =         0.00000000
  ---------------------------------------------------
  free energy    TOTEN  =       -15.35159535 eV

  energy without entropy =      -15.35159535  energy(sigma->0) =      -15.35159535


--------------------------------------------------------------------------------------------------------




--------------------------------------- Iteration      1(   3)  ---------------------------------------


     EDDAV:  cpu time   19.0636: real time   19.1300
       DOS:  cpu time    0.0111: real time    0.0111
    --------------------------------------------
      LOOP:  cpu time   19.0747: real time   19.1411

 eigenvalue-minimisations  : 12992
 total energy-change (2. order) :-0.7485588E+00  (-0.7485588E+00)
 number of electron      54.0000000 magnetization 
 augmentation part       54.0000000 magnetization 

 Free energy of the ion-electron system (eV)
  ---------------------------------------------------
  alpha Z        PSCENC =       124.48026401
  Ewald energy   TEWEN  =     -3287.13745895
  -Hartree energ DENC   =     -2310.80269432
  -exchange      EXHF   =         0.00000000
  -V(xc)+E(xc)   XCENC  =        86.31104968
  PAW double counting   =      4988.91998590    -5406.16159368
  entropy T*S    EENTRO =        -0.00000000
  eigenvalues    EBANDS =      -127.99399099
  atomic energy  EATOM  =      5916.28428415
  Solvation  Ediel_sol  =         0.00000000
  ---------------------------------------------------
  free energy    TOTEN  =       -16.10015420 eV

  energy without entropy =      -16.10015420  energy(sigma->0) =      -16.10015420


--------------------------------------------------------------------------------------------------------




--------------------------------------- Iteration      1(   4)  ---------------------------------------


     EDDAV:  cpu time   53.4009: real time   53.6445
       DOS:  cpu time    0.0109: real time    0.0109
    --------------------------------------------
      LOOP:  cpu time   53.4119: real time   53.6554

 eigenvalue-minimisations  : 23936
 total energy-change (2. order) :-0.4021962E-02  (-0.4021962E-02)
 number of electron      54.0000000 magnetization 
 augmentation part       54.0000000 magnetization 

 Free energy of the ion-electron system (eV)
  ---------------------------------------------------
  alpha Z        PSCENC =       124.48026401
  Ewald energy   TEWEN  =     -3287.13745895
  -Hartree energ DENC   =     -2310.80269432
  -exchange      EXHF   =         0.00000000
  -V(xc)+E(xc)   XCENC  =        86.31104968
  PAW double counting   =      4988.91998590    -5406.16159368
  entropy T*S    EENTRO =        -0.00000000
  eigenvalues    EBANDS =      -127.99801295
  atomic energy  EATOM  =      5916.28428415
  Solvation  Ediel_sol  =         0.00000000
  ---------------------------------------------------
  free energy    TOTEN  =       -16.10417616 eV

  energy without entropy =      -16.10417616  energy(sigma->0) =      -16.10417616


--------------------------------------------------------------------------------------------------------




--------------------------------------- Iteration      1(   5)  ---------------------------------------


     EDDAV:  cpu time   19.0122: real time   19.1334
       DOS:  cpu time    0.0101: real time    0.0101
    CHARGE:  cpu time    0.1840: real time    0.1847
    MIXING:  cpu time    0.0036: real time    0.0045
    --------------------------------------------
      LOOP:  cpu time   19.2100: real time   19.3327

 eigenvalue-minimisations  : 12864
 total energy-change (2. order) :-0.4765188E-06  (-0.4765170E-06)
 number of electron      53.9999922 magnetization 
 augmentation part       20.2727038 magnetization 

 Broyden mixing:
  rms(total) = 0.76806E+00    rms(broyden)= 0.76805E+00
  rms(prec ) = 0.84618E+00
  weight for this iteration     100.00

 Free energy of the ion-electron system (eV)
  ---------------------------------------------------
  alpha Z        PSCENC =       124.48026401
  Ewald energy   TEWEN  =     -3287.13745895
  -Hartree energ DENC   =     -2310.80269432
  -exchange      EXHF   =         0.00000000
  -V(xc)+E(xc)   XCENC  =        86.31104968
  PAW double counting   =      4988.91998590    -5406.16159368
  entropy T*S    EENTRO =        -0.00000000
  eigenvalues    EBANDS =      -127.99801343
  atomic energy  EATOM  =      5916.28428415
  Solvation  Ediel_sol  =         0.00000000
  ---------------------------------------------------
  free energy    TOTEN  =       -16.10417664 eV

  energy without entropy =      -16.10417664  energy(sigma->0) =      -16.10417664


--------------------------------------------------------------------------------------------------------




--------------------------------------- Iteration      1(   6)  ---------------------------------------


    POTLOK:  cpu time    0.0271: real time    0.0271
    SETDIJ:  cpu time    0.0102: real time    0.0102
     EDDAV:  cpu time   24.3640: real time   24.5081
       DOS:  cpu time    0.0098: real time    0.0099
    CHARGE:  cpu time    0.2322: real time    0.2322
    MIXING:  cpu time    0.0143: real time    0.0145
    --------------------------------------------
      LOOP:  cpu time   24.6577: real time   24.8021

 eigenvalue-minimisations  : 15424
 total energy-change (2. order) : 0.4800254E+00  (-0.2841246E+00)
 number of electron      53.9999921 magnetization 
 augmentation part       20.5933621 magnetization 

 Broyden mixing:
  rms(total) = 0.57054E+00    rms(broyden)= 0.57054E+00
  rms(prec ) = 0.58484E+00
  weight for this iteration     100.00

 eigenvalues of (default mixing * dielectric matrix)
  average eigenvalue GAMMA=   1.6624
  1.6624

 Free energy of the ion-electron system (eV)
  ---------------------------------------------------
  alpha Z        PSCENC =       124.48026401
  Ewald energy   TEWEN  =     -3287.13745895
  -Hartree energ DENC   =     -2286.07457547
  -exchange      EXHF   =         0.00000000
  -V(xc)+E(xc)   XCENC  =        85.79492093
  PAW double counting   =      5265.85787060    -5676.07800925
  entropy T*S    EENTRO =        -0.00000000
  eigenvalues    EBANDS =      -158.75144729
  atomic energy  EATOM  =      5916.28428415
  Solvation  Ediel_sol  =         0.00000000
  ---------------------------------------------------
  free energy    TOTEN  =       -15.62415127 eV

  energy without entropy =      -15.62415127  energy(sigma->0) =      -15.62415127


--------------------------------------------------------------------------------------------------------




--------------------------------------- Iteration      1(   7)  ---------------------------------------


    POTLOK:  cpu time    0.1681: real time    0.1946
    SETDIJ:  cpu time    0.0107: real time    0.0107
     EDDAV:  cpu time   43.3174: real time   43.6408
       DOS:  cpu time    0.0109: real time    0.0109
    CHARGE:  cpu time    0.1973: real time    0.1973
    MIXING:  cpu time    0.0020: real time    0.0020
    --------------------------------------------
      LOOP:  cpu time   43.7065: real time   44.0564

 eigenvalue-minimisations  : 20800
 total energy-change (2. order) : 0.4186650E-01  (-0.2148516E-01)
 number of electron      53.9999921 magnetization 
 augmentation part       20.5514776 magnetization 

 Broyden mixing:
  rms(total) = 0.21542E+00    rms(broyden)= 0.21542E+00
  rms(prec ) = 0.22257E+00
  weight for this iteration     100.00

 eigenvalues of (default mixing * dielectric matrix)
  average eigenvalue GAMMA=   1.6834
  0.8610  2.5058

 Free energy of the ion-electron system (eV)
  ---------------------------------------------------
  alpha Z        PSCENC =       124.48026401
  Ewald energy   TEWEN  =     -3287.13745895
  -Hartree energ DENC   =     -2286.93182482
  -exchange      EXHF   =         0.00000000
  -V(xc)+E(xc)   XCENC  =        86.19892743
  PAW double counting   =      5633.54711367    -6049.56418997
  entropy T*S    EENTRO =        -0.00000000
  eigenvalues    EBANDS =      -152.45940029
  atomic energy  EATOM  =      5916.28428415
  Solvation  Ediel_sol  =         0.00000000
  ---------------------------------------------------
  free energy    TOTEN  =       -15.58228477 eV

  energy without entropy =      -15.58228477  energy(sigma->0) =      -15.58228477


--------------------------------------------------------------------------------------------------------




--------------------------------------- Iteration      1(   8)  ---------------------------------------


    POTLOK:  cpu time    0.0462: real time    0.0961
    SETDIJ:  cpu time    0.0211: real time    0.0211
     EDDAV:  cpu time   32.1598: real time   32.1779
       DOS:  cpu time    0.0107: real time    0.0107
    CHARGE:  cpu time    0.2388: real time    0.2388
    MIXING:  cpu time    0.0128: real time    0.0128
    --------------------------------------------
      LOOP:  cpu time   32.4893: real time   32.5574

 eigenvalue-minimisations  : 17600
 total energy-change (2. order) : 0.3102434E-03  (-0.3038509E-02)
 number of electron      53.9999921 magnetization 
 augmentation part       20.5692158 magnetization 

 Broyden mixing:
  rms(total) = 0.29299E-01    rms(broyden)= 0.29299E-01
  rms(prec ) = 0.34425E-01
  weight for this iteration     100.00

 eigenvalues of (default mixing * dielectric matrix)
  average eigenvalue GAMMA=   1.6268
  2.5232  0.9129  1.4444

 Free energy of the ion-electron system (eV)
  ---------------------------------------------------
  alpha Z        PSCENC =       124.48026401
  Ewald energy   TEWEN  =     -3287.13745895
  -Hartree energ DENC   =     -2283.62699567
  -exchange      EXHF   =         0.00000000
  -V(xc)+E(xc)   XCENC  =        86.28553560
  PAW double counting   =      5907.47495555    -6325.04993133
  entropy T*S    EENTRO =        -0.00000000
  eigenvalues    EBANDS =      -154.29262789
  atomic energy  EATOM  =      5916.28428415
  Solvation  Ediel_sol  =         0.00000000
  ---------------------------------------------------
  free energy    TOTEN  =       -15.58197453 eV

  energy without entropy =      -15.58197453  energy(sigma->0) =      -15.58197453


--------------------------------------------------------------------------------------------------------




--------------------------------------- Iteration      1(   9)  ---------------------------------------


    POTLOK:  cpu time    0.1003: real time    0.1179
    SETDIJ:  cpu time    0.0103: real time    0.0103
     EDDAV:  cpu time   31.9730: real time   32.0650
       DOS:  cpu time    0.0100: real time    0.0101
    CHARGE:  cpu time    0.2160: real time    0.2164
    MIXING:  cpu time    0.0014: real time    0.0014
    --------------------------------------------
      LOOP:  cpu time   32.3111: real time   32.4210

 eigenvalue-minimisations  : 17600
 total energy-change (2. order) : 0.5787929E-03  (-0.7203329E-03)
 number of electron      53.9999921 magnetization 
 augmentation part       20.5699722 magnetization 

 Broyden mixing:
  rms(total) = 0.73740E-02    rms(broyden)= 0.73739E-02
  rms(prec ) = 0.82692E-02
  weight for this iteration     100.00

 eigenvalues of (default mixing * dielectric matrix)
  average eigenvalue GAMMA=   1.4473
  2.4524  1.6560  0.8771  0.8038

 Free energy of the ion-electron system (eV)
  ---------------------------------------------------
  alpha Z        PSCENC =       124.48026401
  Ewald energy   TEWEN  =     -3287.13745895
  -Hartree energ DENC   =     -2283.32312356
  -exchange      EXHF   =         0.00000000
  -V(xc)+E(xc)   XCENC  =        86.26306331
  PAW double counting   =      5930.29982155    -6347.80760916
  entropy T*S    EENTRO =        -0.00000000
  eigenvalues    EBANDS =      -154.64063709
  atomic energy  EATOM  =      5916.28428415
  Solvation  Ediel_sol  =         0.00000000
  ---------------------------------------------------
  free energy    TOTEN  =       -15.58139573 eV

  energy without entropy =      -15.58139573  energy(sigma->0) =      -15.58139573


--------------------------------------------------------------------------------------------------------




--------------------------------------- Iteration      1(  10)  ---------------------------------------


    POTLOK:  cpu time    0.0261: real time    0.0573
    SETDIJ:  cpu time    0.0102: real time    0.0102
     EDDAV:  cpu time   37.7455: real time   37.8870
       DOS:  cpu time    0.0102: real time    0.0102
    --------------------------------------------
      LOOP:  cpu time   37.7919: real time   37.9647

 eigenvalue-minimisations  : 19136
 total energy-change (2. order) :-0.1194678E-03  (-0.2323136E-04)
 number of electron      53.9999921 magnetization 
 augmentation part       20.5699722 magnetization 

 Free energy of the ion-electron system (eV)
  ---------------------------------------------------
  alpha Z        PSCENC =       124.48026401
  Ewald energy   TEWEN  =     -3287.13745895
  -Hartree energ DENC   =     -2283.42003200
  -exchange      EXHF   =         0.00000000
  -V(xc)+E(xc)   XCENC  =        86.26607942
  PAW double counting   =      5926.67138169    -6344.17249974
  entropy T*S    EENTRO =        -0.00000000
  eigenvalues    EBANDS =      -154.55353378
  atomic energy  EATOM  =      5916.28428415
  Solvation  Ediel_sol  =         0.00000000
  ---------------------------------------------------
  free energy    TOTEN  =       -15.58151520 eV

  energy without entropy =      -15.58151520  energy(sigma->0) =      -15.58151520


--------------------------------------------------------------------------------------------------------




 average (electrostatic) potential at core
  the test charge radii are     0.9521  1.1897
  (the norm of the test charge is              1.0000)
       1 -36.2843       2 -36.2849       3 -36.2836       4 -91.0077       5 -91.0084
       6 -91.0064
 
 
 
 E-fermi :   3.5339     XC(G=0):  -8.7814     alpha+bet : -7.9814


 k-point     1 :       0.1250    0.1250    0.1250
  band No.  band energies     occupation 
      1      -8.4631      2.00000
      2      -8.0684      2.00000
      3      -7.9031      2.00000
      4      -3.9345      2.00000
      5      -3.9264      2.00000
      6      -3.9173      2.00000
      7      -3.9024      2.00000
      8      -3.8921      2.00000
      9      -3.8879      2.00000
     10      -3.8785      2.00000
     11      -3.8305      2.00000
     12      -3.7844      2.00000
     13      -3.7511      2.00000
     14      -3.7421      2.00000
     15      -3.7407      2.00000
     16      -3.7380      2.00000
     17      -3.7235      2.00000
     18      -3.6668      2.00000
     19      -1.4526      2.00000
     20      -0.8748      2.00000
     21       0.5121      2.00000
     22       0.6296      2.00000
     23       0.9102      2.00000
     24       1.5755      2.00000
     25       1.7898      2.00000
     26       1.9482      2.00000
     27       2.5422      2.00000
     28       5.3496      0.00000
     29       6.0544      0.00000
     30       6.1346      0.00000
     31       7.0303      0.00000
     32       7.1423      0.00000
     33       7.4200      0.00000
     34       7.8498      0.00000
     35       8.2279      0.00000
     36       8.3070      0.00000
     37       8.4853      0.00000
     38       9.4150      0.00000
     39       9.6872      0.00000
     40      10.6549      0.00000
     41      11.1038      0.00000
     42      11.5961      0.00000
     43      11.7921      0.00000
     44      12.0359      0.00000
     45      12.9308      0.00000
     46      13.1703      0.00000
     47      13.5920      0.00000
     48      13.8331      0.00000
     49      14.0166      0.00000
     50      14.5999      0.00000
     51      14.7558      0.00000
     52      14.9810      0.00000
     53      15.6633      0.00000
     54      16.3573      0.00000
     55      16.4123      0.00000
     56      16.9562      0.00000
     57      17.0926      0.00000
     58      18.3825      0.00000
     59      18.6515      0.00000
     60      18.8492      0.00000
     61      18.9918      0.00000
     62      19.1905      0.00000
     63      19.5516      0.00000
     64      20.1270      0.00000

 k-point     2 :       0.2500   -0.1250    0.1250
  band No.  band energies     occupation 
      1      -8.4631      2.00000
      2      -8.0683      2.00000
      3      -7.9032      2.00000
      4      -3.9347      2.00000
      5      -3.9259      2.00000
      6      -3.9177      2.00000
      7      -3.9023      2.00000
      8      -3.8932      2.00000
      9      -3.8866      2.00000
     10      -3.8786      2.00000
     11      -3.8305      2.00000
     12      -3.7831      2.00000
     13      -3.7511      2.00000
     14      -3.7437      2.00000
     15      -3.7410      2.00000
     16      -3.7381      2.00000
     17      -3.7227      2.00000
     18      -3.6669      2.00000
     19      -1.4527      2.00000
     20      -0.8752      2.00000
     21       0.5223      2.00000
     22       0.6233      2.00000
     23       0.9063      2.00000
     24       1.5752      2.00000
     25       1.7849      2.00000
     26       1.9525      2.00000
     27       2.5428      2.00000
     28       5.3519      0.00000
     29       6.0547      0.00000
     30       6.1354      0.00000
     31       7.0289      0.00000
     32       7.1436      0.00000
     33       7.4222      0.00000
     34       7.8483      0.00000
     35       8.1795      0.00000
     36       8.3731      0.00000
     37       8.4606      0.00000
     38       9.4073      0.00000
     39       9.6957      0.00000
     40      10.6506      0.00000
     41      11.1122      0.00000
     42      11.6342      0.00000
     43      11.7437      0.00000
     44      12.0530      0.00000
     45      12.9292      0.00000
     46      13.1661      0.00000
     47      13.6094      0.00000
     48      13.7841      0.00000
     49      14.0387      0.00000
     50      14.5732      0.00000
     51      14.7990      0.00000
     52      14.9758      0.00000
     53      15.6769      0.00000
     54      16.3309      0.00000
     55      16.4102      0.00000
     56      16.9300      0.00000
     57      17.1170      0.00000
     58      18.4046      0.00000
     59      18.6627      0.00000
     60      18.8299      0.00000
     61      18.9977      0.00000
     62      19.2020      0.00000
     63      19.5506      0.00000
     64      20.1113      0.00000

 k-point     3 :       0.1250   -0.2500    0.1250
  band No.  band energies     occupation 
      1      -8.4631      2.00000
      2      -8.0684      2.00000
      3      -7.9031      2.00000
      4      -3.9348      2.00000
      5      -3.9263      2.00000
      6      -3.9171      2.00000
      7      -3.9025      2.00000
      8      -3.8918      2.00000
      9      -3.8880      2.00000
     10      -3.8785      2.00000
     11      -3.8302      2.00000
     12      -3.7837      2.00000
     13      -3.7505      2.00000
     14      -3.7428      2.00000
     15      -3.7413      2.00000
     16      -3.7385      2.00000
     17      -3.7231      2.00000
     18      -3.6668      2.00000
     19      -1.4524      2.00000
     20      -0.8752      2.00000
     21       0.5126      2.00000
     22       0.6292      2.00000
     23       0.9107      2.00000
     24       1.5752      2.00000
     25       1.7898      2.00000
     26       1.9474      2.00000
     27       2.5425      2.00000
     28       5.3502      0.00000
     29       6.0559      0.00000
     30       6.1337      0.00000
     31       7.0299      0.00000
     32       7.1420      0.00000
     33       7.4198      0.00000
     34       7.8496      0.00000
     35       8.2274      0.00000
     36       8.3066      0.00000
     37       8.4851      0.00000
     38       9.4153      0.00000
     39       9.6876      0.00000
     40      10.6552      0.00000
     41      11.1041      0.00000
     42      11.5962      0.00000
     43      11.7923      0.00000
     44      12.0354      0.00000
     45      12.9311      0.00000
     46      13.1703      0.00000
     47      13.5919      0.00000
     48      13.8325      0.00000
     49      14.0164      0.00000
     50      14.6002      0.00000
     51      14.7558      0.00000
     52      14.9809      0.00000
     53      15.6632      0.00000
     54      16.3572      0.00000
     55      16.4124      0.00000
     56      16.9567      0.00000
     57      17.0926      0.00000
     58      18.3827      0.00000
     59      18.6516      0.00000
     60      18.8493      0.00000
     61      18.9919      0.00000
     62      19.1904      0.00000
     63      19.5514      0.00000
     64      20.1269      0.00000

 k-point     4 :      -0.1250   -0.1250    0.1250
  band No.  band energies     occupation 
      1      -8.4631      2.00000
      2      -8.0684      2.00000
      3      -7.9031      2.00000
      4      -3.9344      2.00000
      5      -3.9261      2.00000
      6      -3.9177      2.00000
      7      -3.9026      2.00000
      8      -3.8927      2.00000
      9      -3.8868      2.00000
     10      -3.8786      2.00000
     11      -3.8307      2.00000
     12      -3.7840      2.00000
     13      -3.7516      2.00000
     14      -3.7432      2.00000
     15      -3.7403      2.00000
     16      -3.7374      2.00000
     17      -3.7230      2.00000
     18      -3.6669      2.00000
     19      -1.4528      2.00000
     20      -0.8749      2.00000
     21       0.5225      2.00000
     22       0.6229      2.00000
     23       0.9059      2.00000
     24       1.5754      2.00000
     25       1.7857      2.00000
     26       1.9524      2.00000
     27       2.5426      2.00000
     28       5.3511      0.00000
     29       6.0549      0.00000
     30       6.1345      0.00000
     31       7.0296      0.00000
     32       7.1437      0.00000
     33       7.4225      0.00000
     34       7.8485      0.00000
     35       8.1804      0.00000
     36       8.3732      0.00000
     37       8.4603      0.00000
     38       9.4070      0.00000
     39       9.6955      0.00000
     40      10.6507      0.00000
     41      11.1116      0.00000
     42      11.6338      0.00000
     43      11.7437      0.00000
     44      12.0536      0.00000
     45      12.9287      0.00000
     46      13.1663      0.00000
     47      13.6096      0.00000
     48      13.7847      0.00000
     49      14.0387      0.00000
     50      14.5731      0.00000
     51      14.7989      0.00000
     52      14.9758      0.00000
     53      15.6771      0.00000
     54      16.3309      0.00000
     55      16.4104      0.00000
     56      16.9296      0.00000
     57      17.1169      0.00000
     58      18.4044      0.00000
     59      18.6624      0.00000
     60      18.8301      0.00000
     61      18.9977      0.00000
     62      19.2016      0.00000
     63      19.5510      0.00000
     64      20.1113      0.00000

 k-point     5 :      -0.2500    0.1250    0.1250
  band No.  band energies     occupation 
      1      -8.4631      2.00000
      2      -8.0684      2.00000
      3      -7.9031      2.00000
      4      -3.9346      2.00000
      5      -3.9266      2.00000
      6      -3.9171      2.00000
      7      -3.9024      2.00000
      8      -3.8914      2.00000
      9      -3.8884      2.00000
     10      -3.8785      2.00000
     11      -3.8301      2.00000
     12      -3.7841      2.00000
     13      -3.7507      2.00000
     14      -3.7428      2.00000
     15      -3.7409      2.00000
     16      -3.7381      2.00000
     17      -3.7233      2.00000
     18      -3.6668      2.00000
     19      -1.4528      2.00000
     20      -0.8747      2.00000
     21       0.5127      2.00000
     22       0.6293      2.00000
     23       0.9102      2.00000
     24       1.5750      2.00000
     25       1.7895      2.00000
     26       1.9480      2.00000
     27       2.5426      2.00000
     28       5.3504      0.00000
     29       6.0547      0.00000
     30       6.1348      0.00000
     31       7.0299      0.00000
     32       7.1418      0.00000
     33       7.4200      0.00000
     34       7.8492      0.00000
     35       8.2274      0.00000
     36       8.3067      0.00000
     37       8.4854      0.00000
     38       9.4155      0.00000
     39       9.6874      0.00000
     40      10.6552      0.00000
     41      11.1038      0.00000
     42      11.5961      0.00000
     43      11.7924      0.00000
     44      12.0355      0.00000
     45      12.9311      0.00000
     46      13.1703      0.00000
     47      13.5920      0.00000
     48      13.8331      0.00000
     49      14.0166      0.00000
     50      14.5999      0.00000
     51      14.7556      0.00000
     52      14.9806      0.00000
     53      15.6633      0.00000
     54      16.3572      0.00000
     55      16.4124      0.00000
     56      16.9563      0.00000
     57      17.0927      0.00000
     58      18.3826      0.00000
     59      18.6517      0.00000
     60      18.8496      0.00000
     61      18.9919      0.00000
     62      19.1902      0.00000
     63      19.5518      0.00000
     64      20.1265      0.00000

 k-point     6 :      -0.1250    0.2500    0.1250
  band No.  band energies     occupation 
      1      -8.4631      2.00000
      2      -8.0684      2.00000
      3      -7.9031      2.00000
      4      -3.9346      2.00000
      5      -3.9261      2.00000
      6      -3.9174      2.00000
      7      -3.9025      2.00000
      8      -3.8933      2.00000
      9      -3.8860      2.00000
     10      -3.8788      2.00000
     11      -3.8304      2.00000
     12      -3.7836      2.00000
     13      -3.7512      2.00000
     14      -3.7442      2.00000
     15      -3.7404      2.00000
     16      -3.7376      2.00000
     17      -3.7229      2.00000
     18      -3.6668      2.00000
     19      -1.4530      2.00000
     20      -0.8747      2.00000
     21       0.5226      2.00000
     22       0.6232      2.00000
     23       0.9058      2.00000
     24       1.5752      2.00000
     25       1.7855      2.00000
     26       1.9520      2.00000
     27       2.5431      2.00000
     28       5.3520      0.00000
     29       6.0557      0.00000
     30       6.1342      0.00000
     31       7.0290      0.00000
     32       7.1438      0.00000
     33       7.4222      0.00000
     34       7.8481      0.00000
     35       8.1799      0.00000
     36       8.3733      0.00000
     37       8.4598      0.00000
     38       9.4072      0.00000
     39       9.6960      0.00000
     40      10.6508      0.00000
     41      11.1117      0.00000
     42      11.6340      0.00000
     43      11.7439      0.00000
     44      12.0532      0.00000
     45      12.9286      0.00000
     46      13.1666      0.00000
     47      13.6099      0.00000
     48      13.7845      0.00000
     49      14.0386      0.00000
     50      14.5736      0.00000
     51      14.7986      0.00000
     52      14.9752      0.00000
     53      15.6770      0.00000
     54      16.3310      0.00000
     55      16.4104      0.00000
     56      16.9298      0.00000
     57      17.1167      0.00000
     58      18.4045      0.00000
     59      18.6629      0.00000
     60      18.8301      0.00000
     61      18.9976      0.00000
     62      19.2021      0.00000
     63      19.5506      0.00000
     64      20.1111      0.00000

 k-point     7 :       0.3750    0.1250    0.1250
  band No.  band energies     occupation 
      1      -7.9387      2.00000
      2      -7.7524      2.00000
      3      -7.6899      2.00000
      4      -3.8988      2.00000
      5      -3.8929      2.00000
      6      -3.8847      2.00000
      7      -3.8790      2.00000
      8      -3.8650      2.00000
      9      -3.8289      2.00000
     10      -3.8155      2.00000
     11      -3.7659      2.00000
     12      -3.7570      2.00000
     13      -3.7440      2.00000
     14      -3.7428      2.00000
     15      -3.7268      2.00000
     16      -3.6677      2.00000
     17      -3.5754      2.00000
     18      -3.5494      2.00000
     19      -1.8732      2.00000
     20      -1.7893      2.00000
     21      -1.6420      2.00000
     22       0.2600      2.00000
     23       0.5056      2.00000
     24       0.9255      2.00000
     25       0.9734      2.00000
     26       1.2434      2.00000
     27       1.9061      2.00000
     28       5.2799      0.00000
     29       5.5650      0.00000
     30       6.0250      0.00000
     31       6.2760      0.00000
     32       7.4714      0.00000
     33       7.6970      0.00000
     34       8.4190      0.00000
     35       8.9815      0.00000
     36       9.8571      0.00000
[...]
   45        eccp                                  0.939416                         4416   3
   46        truncate_high_frequency_w1            0.021358                        20226   3
   47        setup_precond                         0.133030                         4416   3
   48        hamiltmu                             47.436649                        15810   3
   49          vhamil                                4.187552                      15810   4
   50          overl1                                0.334126                      15810   4
   51          vnlac0                               16.752766                      15810   4
   52            gemm                                 13.115551                    94860   5
   53            work_mul_crexp                        3.019258                    94860   5
   54          kinhamil                             25.278031                      15810   4
   55            fftext_mpi                           24.838580                    15810   5
   56              fft3d_mpi                            23.391882                  15810   6
   57                fft3d                                23.292857                15810   7
   58        overl                                 0.679925                        27204   3
   59        orth1                                14.929560                        43014   3
   60        apply_precond                         0.473533                        11394   3
   61        w1_projall                           11.736453                        11394   3
   62          proj1                                11.645544                      11394   4
   63      set_charge                            5.471472                             27   2
   64        soft_charge                           5.265193                           27   3
   65          fftwav_mpi                            4.185439                       2592   4
   66            fftwav                                4.175543                     2592   5
   67              fft3d                                 3.825422                   2592   6
   68          pw_charge                             0.389243                       2592   4
   69          fft3d_mpi                             0.144641                         27   4
   70            fftbas_plan_mpi                       0.136046                       27   5
   71              dfftw_execute                         0.009072                     81   6
   72              map_backward                          0.123694                     54   6
   73                map_gather                            0.003126                   54   7
   74                m_alltoallv_z                         0.119356                   54   7
   75                map_scatter                           0.000673                   54   7
   76        depsum                                0.084107                           27   3
   77        fft3d_mpi                             0.090787                           27   3
   78          fftbas_plan_mpi                       0.090363                         27   4
   79            dfftw_execute                         0.004057                       81   5
   80            map_backward                          0.081506                       54   5
   81              map_gather                            0.000676                     27   6
   82              m_alltoallv_z                         0.079731                     27   6
   83              map_scatter                           0.000776                     27   6
   84      brmix                                 0.055275                             27   2
   85        brpre                                 0.001104                           27   3
   86        setg0                                 0.006292                           42   3
   87        broyd                                 0.021405                           27   3
   88          brsav                                 0.000567                        156   4
   89          brget                                 0.000540                        258   4
   90      force_and_stress                     79.491423                             15   2
   91        set_charge                            3.138176                           15   3
   92          soft_charge                           3.038425                         15   4
   93            fftwav_mpi                            2.328132                     1440   5
   94              fftwav                                2.323185                   1440   6
   95                fft3d                                 2.133194                 1440   7
   96            pw_charge                             0.208818                     1440   5
   97            fft3d_mpi                             0.099613                       15   5
   98              fftbas_plan_mpi                       0.094724                     15   6
   99                dfftw_execute                         0.005017                   45   7
  100                map_backward                          0.087810                   30   7
  101                  map_gather                            0.001667                 30   8
  102                  m_alltoallv_z                         0.085512                 30   8
  103                  map_scatter                           0.000367                 30   8
  104          depsum                                0.030265                         15   4
  105          fft3d_mpi                             0.052143                         15   4
  106            fftbas_plan_mpi                       0.051886                       15   5
  107              dfftw_execute                         0.002294                     45   6
  108              map_backward                          0.047018                     30   6
  109                map_gather                            0.000358                   15   7
  110                m_alltoallv_z                         0.046017                   15   7
  111                map_scatter                           0.000459                   15   7
  112        forloc                                0.018167                           15   3
  113        fornl                                 6.737857                           15   3
  114          phase                                 1.115572                       1440   4
  115        fordep                                0.199119                           15   3
  116          setdij_                               0.197260                         90   4
  117        setdij_                               0.880234                          300   3
  118        set_dd_paw                            0.192013                           15   3
  119          set_rsgf_all                          0.000029                         15   4
  120        strkin                                0.064347                           15   3
  121        strelo                                0.027799                           15   3
  122        strenl                               67.267186                           15   3
  123          spher                                42.329321                        285   4
  124          phase                                 9.996789                      12960   4
  125          proj1                                 9.149472                      12960   4
  126        fft3d_mpi                             0.430679                          165   3
  127          fftbas_plan_mpi                       0.427984                        165   4
  128            dfftw_execute                         0.024871                      495   5
  129            map_forward                           0.189112                      150   5
  130              map_gather                            0.001355                     75   6
  131              m_alltoallv_z                         0.184337                     75   6
  132              map_scatter                           0.002524                     75   6
  133            map_backward                          0.188759                      180   5
  134              map_gather                            0.002232                     90   6
  135              m_alltoallv_z                         0.182861                     90   6
  136              map_scatter                           0.002625                     90   6
  137        ggaall_grid                           0.065898                           15   3
  138        forhar                                0.041232                           30   3
  139        strehar                               0.028408                           15   3
  140        chggra                                0.200752                           15   3
  141          fft3d_mpi                             0.141890                         45   4
  142            fftbas_plan_mpi                       0.141196                       45   5
  143              dfftw_execute                         0.006755                    135   6
  144              map_forward                           0.114210                     60   6
  145                map_gather                            0.000566                   30   7
  146                m_alltoallv_z                         0.112255                   30   7
  147                map_scatter                           0.001004                   30   7
  148              map_backward                          0.013235                     30   6
  149                map_gather                            0.000352                   15   7
  150                m_alltoallv_z                         0.012298                   15   7
  151                map_scatter                           0.000408                   15   7
  152        brmix                                 0.015474                           15   3
  153          brpre                                 0.000536                         15   4
  154          setg0                                 0.002651                         15   4
  155          broyd                                 0.006171                         15   4
  156            brsav                                 0.000203                      103   5
  157            brget                                 0.000587                      270   5
 
 Flat profile
 ============
 
             routine name                   CPU           calls
 ---------------------------------------------------------------
 eddav                                1155.825264          46
 redis_proj                             65.738005       67560
 redis_pw                               56.083621       54726
 fft3d                                  53.941086       35652
 spher                                  44.732814         300
 total_time                             35.968881           1
 proj1                                  21.829223       25794
 phase                                  15.634905       20271
 orth1                                  14.929560       43014
 gemm                                   13.115551       94860
 strenl                                  5.791604          15
 fornl                                   5.622285          15
 m_sum_g                                 4.366023        2880
 vhamil                                  4.187552       15810
 fftwav                                  3.810551       19842
 bg_ppotrf_trtri                         3.096519        1440
 work_mul_crexp                          3.019258       94860
 m_alltoallv_z                           2.107930        1152
 fftext_mpi                              1.446698       15810
 setdij_                                 1.176842         448
 w1_copy                                 1.176400       47430
 soft_charge                             0.947732          42
 eccp                                    0.939416        4416
 hamiltmu                                0.884174       15810
 set_dd_paw                              0.787847          72
 overl                                   0.729573       28644
 vnlac0                                  0.617956       15810
 pw_charge                               0.598061        4032
 apply_precond                           0.473533       11394
 lincom_slice                            0.470020        1440
 kinhamil                                0.439451       15810
 orth1_nosubindex                        0.344749        1440
 overl1                                  0.334126       15810
 ggaall_grid                             0.316739          72
 force_and_stress                        0.184081          15
 dfftw_execute                           0.178427        3159
 fftbas_plan_mpi                         0.167990        1053
 fft3d_mpi                               0.148834       16863
 setup_precond                           0.133030        4416
 depsum                                  0.114372          42
 w1_projall                              0.090909       11394
 orthch                                  0.082539          15
 fftwav_mpi                              0.080002       19842
 strkin                                  0.064347          15
 chggra                                  0.058862          15
 brgrid                                  0.048851           1
 set_charge                              0.048728          42
 forhar                                  0.041232          30
 map_scatter                             0.037672        1152
 lincom_distri                           0.035533        1440
 brmix                                   0.032590          42
 orth1_distri                            0.029174        1440
 strehar                                 0.028408          15
 strelo                                  0.027799          15
 map_gather                              0.027024        1152
 broyd                                   0.025678          42
 truncate_high_frequency_w1              0.021358       20226
 forloc                                  0.018167          15
 recon_slice                             0.014502        1440
 proj                                    0.013583        1440
 distri_slice                            0.009504        1440
 setg0                                   0.008943          57
 map_forward                             0.007090        1044
 choleski                                0.006709        1440
 map_backward                            0.006438        1062
 fordep                                  0.001859          15
 brpre                                   0.001640          42
 brget                                   0.001127         528
 brsav                                   0.000770         259
 set_rsgf_all                            0.000138          72
 redis_pw_over_bands                     0.000013          15
 ---------------------------------------------------------------
  summed up times    1523.28187513351     
 
 Accumulative profile
 ====================
 
             routine name                   CPU           calls
 ---------------------------------------------------------------
 total_time                           1523.281875           1
 eddav                                1382.434703          46
 force_and_stress                       79.491423          15
 strenl                                 67.267186          15
 redis_proj                             65.738005       67560
 redis_pw                               56.083621       54726
 fft3d                                  53.941086       35652
 hamiltmu                               47.436649       15810
 spher                                  44.732814         300
 fftwav_mpi                             34.538782       19842
 fftwav                                 34.458780       19842
 fft3d_mpi                              25.974261       16863
 kinhamil                               25.278031       15810
 fftext_mpi                             24.838580       15810
 proj1                                  21.829223       25794
 vnlac0                                 16.752766       15810
 phase                                  15.634905       20271
 orth1                                  14.929560       43014
 gemm                                   13.115551       94860
 orthch                                 12.648126          15
 w1_projall                             11.736453       11394
 set_charge                              8.609648          42
 soft_charge                             8.303618          42
 fornl                                   6.737857          15
 m_sum_g                                 4.366023        2880
 vhamil                                  4.187552       15810
 choleski                                3.103229        1440
 bg_ppotrf_trtri                         3.096519        1440
 work_mul_crexp                          3.019258       94860
 orth1_distri                            2.694945        1440
 lincom_distri                           2.574560        1440
 fftbas_plan_mpi                         2.532569        1053
 m_alltoallv_z                           2.107930        1152
 setdij_                                 1.176842         448
 w1_copy                                 1.176400       47430
 map_forward                             1.129213        1044
 map_backward                            1.056940        1062
 proj                                    1.047790        1440
 eccp                                    0.939416        4416
 set_dd_paw                              0.787985          72
 overl                                   0.729573       28644
 pw_charge                               0.598061        4032
 apply_precond                           0.473533       11394
 lincom_slice                            0.470020        1440
 orth1_nosubindex                        0.344749        1440
 overl1                                  0.334126       15810
 ggaall_grid                             0.316739          72
 chggra                                  0.200752          15
 fordep                                  0.199119          15
 dfftw_execute                           0.178427        3159
 setup_precond                           0.133030        4416
 depsum                                  0.114372          42
 brmix                                   0.070748          42
 strkin                                  0.064347          15
 brgrid                                  0.048851           1
 forhar                                  0.041232          30
 map_scatter                             0.037672        1152
 strehar                                 0.028408          15
 strelo                                  0.027799          15
 broyd                                   0.027575          42
 map_gather                              0.027024        1152
 truncate_high_frequency_w1              0.021358       20226
 forloc                                  0.018167          15
 recon_slice                             0.014502        1440
 distri_slice                            0.009504        1440
 setg0                                   0.008943          57
 brpre                                   0.001640          42
 brget                                   0.001127         528
 brsav                                   0.000770         259
 set_rsgf_all                            0.000138          72
 redis_pw_over_bands                     0.000013          15
 ---------------------------------------------------------------
 
Profiling took   0.932491  0.349556  0.007583  0.007380 seconds
Profiling took   1.107355 seconds
