 vasp.5.4.4 18Apr17 (build Oct 20 2017 19:30:59) complex                        
  
 executed on      IFC17_CrayMPICH date 2019.04.21  14:04:54
 running   64 mpi-ranks, with    1 threads/rank
 distrk:  each k-point on   64 cores,    1 groups
 distr:  one band on NCORES_PER_BAND=   1 cores,   64 groups


--------------------------------------------------------------------------------------------------------


 INCAR:
 POTCAR:    PAW_PBE Zn 06Sep2000                  
 POTCAR:    PAW_PBE Te 08Apr2002                  
 POTCAR:    PAW_PBE Zn 06Sep2000                  
   VRHFIN =Zn: d10 p2                                                           
   LEXCH  = PE                                                                  
   EATOM  =  1748.8345 eV,  128.5357 Ry                                         
                                                                                
   TITEL  = PAW_PBE Zn 06Sep2000                                                
   LULTRA =        F    use ultrasoft PP ?                                      
   IUNSCR =        1    unscreen: 0-lin 1-nonlin 2-no                           
   RPACOR =    2.000    partial core radius                                     
   POMASS =   65.390; ZVAL   =   12.000    mass and valenz                      
   RCORE  =    2.300    outmost cutoff radius                                   
   RWIGS  =    2.400; RWIGS  =    1.270    wigner-seitz radius (au A)           
   ENMAX  =  276.723; ENMIN  =  207.542 eV                                      
   RCLOC  =    1.828    cutoff for local pot                                    
   LCOR   =        T    correct aug charges                                     
   LPAW   =        T    paw PP                                                  
   EAUG   =  575.892                                                            
   DEXC   =    0.000                                                            
   RMAX   =    2.347    core radius for proj-oper                               
   RAUG   =    1.300    factor for augmentation sphere                          
   RDEP   =    2.324    radius for radial grids                                 
   RDEPT  =    1.788    core radius for aug-charge                              
                                                                                
   Atomic configuration                                                         
    9 entries                                                                   
     n  l   j            E        occ.                                          
     1  0  0.50     -9524.6913   2.0000                                         
     2  0  0.50     -1158.1882   2.0000                                         
     2  1  1.50     -1003.8506   6.0000                                         
     3  0  0.50      -129.2194   2.0000                                         
     3  1  1.50       -83.3890   6.0000                                         
     3  2  2.50       -10.1410  10.0000                                         
     4  0  0.50        -5.9785   2.0000                                         
     4  1  0.50        -4.0817   0.0000                                         
     4  3  2.50        -1.3606   0.0000                                         
   Description                                                                  
     l       E           TYP  RCUT    TYP  RCUT                                 
     2    -10.1410010     23  2.300                                             
     2    -11.5015836     23  2.300                                             
     0     -5.9785163     23  2.300                                             
     0      1.1858015     23  2.300                                             
     1     -2.7211652     23  2.300                                             
     1     13.2444212     23  2.300                                             
  local pseudopotential read in
  partial core-charges read in
  partial kinetic energy density read in
  atomic valenz-charges read in
  non local Contribution for L=           2  read in
    real space projection operators read in
  non local Contribution for L=           2  read in
    real space projection operators read in
  non local Contribution for L=           0  read in
    real space projection operators read in
  non local Contribution for L=           0  read in
    real space projection operators read in
  non local Contribution for L=           1  read in
    real space projection operators read in
  non local Contribution for L=           1  read in
    real space projection operators read in
    PAW grid and wavefunctions read in
 
   number of l-projection  operators is LMAX  =           6
   number of lm-projection operators is LMMAX =          18
 
 POTCAR:    PAW_PBE Te 08Apr2002                  
   VRHFIN =Te: s2p4                                                             
   LEXCH  = PE                                                                  
   EATOM  =   223.2721 eV,   16.4100 Ry                                         
                                                                                
   TITEL  = PAW_PBE Te 08Apr2002                                                
   LULTRA =        F    use ultrasoft PP ?                                      
   IUNSCR =        1    unscreen: 0-lin 1-nonlin 2-no                           
   RPACOR =    2.200    partial core radius                                     
   POMASS =  127.600; ZVAL   =    6.000    mass and valenz                      
   RCORE  =    2.300    outmost cutoff radius                                   
   RWIGS  =    2.900; RWIGS  =    1.535    wigner-seitz radius (au A)           
   ENMAX  =  174.982; ENMIN  =  131.236 eV                                      
   ICORE  =        3    local potential                                         
   LCOR   =        T    correct aug charges                                     
   LPAW   =        T    paw PP                                                  
   EAUG   =  368.792                                                            
   DEXC   =    0.000                                                            
   RMAX   =    2.345    core radius for proj-oper                               
   RAUG   =    1.300    factor for augmentation sphere                          
   RDEP   =    2.397    radius for radial grids                                 
   RDEPT  =    2.174    core radius for aug-charge                              
                                                                                
   Atomic configuration                                                         
   13 entries                                                                   
     n  l   j            E        occ.                                          
     1  0  0.50    -31621.2075   2.0000                                         
     2  0  0.50     -4848.7941   2.0000                                         
     2  1  1.50     -4352.1960   6.0000                                         
     3  0  0.50      -964.9612   2.0000                                         
     3  1  1.50      -803.6179   6.0000                                         
     3  2  2.50      -559.8710  10.0000                                         
     4  0  0.50      -164.3522   2.0000                                         
     4  1  1.50      -114.3756   6.0000                                         
     4  2  2.50       -41.6483  10.0000                                         
     5  0  0.50       -15.1072   2.0000                                         
     5  1  0.50        -5.9526   4.0000                                         
     5  2  1.50        -5.4423   0.0000                                         
     4  3  2.50        -5.4423   0.0000                                         
   Description                                                                  
     l       E           TYP  RCUT    TYP  RCUT                                 
     0    -15.1072389     23  2.300                                             
     0    -16.4678215     23  2.300                                             
     1     -5.9526306     23  2.300                                             
     1     -2.4873968     23  2.300                                             
     2     -5.4423304     23  2.300                                             
     3     -1.3605826     23  2.300                                             
  local pseudopotential read in
  partial core-charges read in
  partial kinetic energy density read in
  atomic valenz-charges read in
  non local Contribution for L=           0  read in
    real space projection operators read in
  non local Contribution for L=           0  read in
    real space projection operators read in
  non local Contribution for L=           1  read in
    real space projection operators read in
  non local Contribution for L=           1  read in
    real space projection operators read in
  non local Contribution for L=           2  read in
    real space projection operators read in
    PAW grid and wavefunctions read in
 
   number of l-projection  operators is LMAX  =           5
   number of lm-projection operators is LMMAX =          13
 
  PAW_PBE Zn 06Sep2000                  :
 energy of atom  1       EATOM=-1748.8345
 kinetic energy error for atom=    0.0107 (will be added to EATOM!!)
  PAW_PBE Te 08Apr2002                  :
 energy of atom  2       EATOM= -223.2721
 kinetic energy error for atom=    0.0011 (will be added to EATOM!!)
 
 
 POSCAR: Zn3 Te3                                 
  positions in direct lattice
  No initial velocities read in
 exchange correlation table for  LEXCH =        8
   RHO(1)=    0.500       N(1)  =     2000
   RHO(2)=  100.500       N(2)  =     4000
 


--------------------------------------------------------------------------------------------------------


 ion  position               nearest neighbor table
   1  0.361  0.021  0.026-   4 2.67   5 2.68   4 2.68   4 2.69
   2  0.661  0.639  0.693-   5 2.67   6 2.68   5 2.68   5 2.69
   3  0.979  0.339  0.360-   6 2.67   4 2.68   6 2.68   6 2.69
   4  0.024  0.353  0.110-   1 2.67   3 2.68   1 2.68   1 2.69
   5  0.329  0.976  0.777-   2 2.67   1 2.68   2 2.68   2 2.69
   6  0.647  0.671  0.444-   3 2.67   2 2.68   3 2.68   3 2.69
 
  LATTYP: Found a hexagonal cell.
 ALAT       =     4.3729999214
 C/A-ratio  =     2.4479762617
  
  Lattice vectors:
  
 A1 = (   4.3730000000,   0.0000000000,   0.0000000000)
 A2 = (  -2.1865000000,   3.7871290000,   0.0000000000)
 A3 = (   0.0000000000,   0.0000000000,  10.7050000000)


Analysis of symmetry for initial positions (statically):
=====================================================================
 Subroutine PRICEL returns:
 Original cell was already a primitive cell.
 

 Routine SETGRP: Setting up the symmetry group for a 
 hexagonal supercell.


 Subroutine GETGRP returns: Found  1 space group operations
 (whereof  1 operations were pure point group operations)
 out of a pool of 24 trial point group operations.


The static configuration has the point symmetry C_1 .


Analysis of symmetry for dynamics (positions and initial velocities):
=====================================================================
 Subroutine PRICEL returns:
 Original cell was already a primitive cell.
 

 Routine SETGRP: Setting up the symmetry group for a 
 hexagonal supercell.


 Subroutine GETGRP returns: Found  1 space group operations
 (whereof  1 operations were pure point group operations)
 out of a pool of 24 trial point group operations.


The dynamic configuration has the point symmetry C_1 .


 Subroutine INISYM returns: Found  1 space group operations
 (whereof  1 operations are pure point group operations),
 and found     1 'primitive' translations

 
 
 KPOINTS: Automatic kpoint scheme                 

Automatic generation of k-mesh.
Space group operators:
 irot       det(A)        alpha          n_x          n_y          n_z        tau_x        tau_y        tau_z
    1     1.000000     0.000000     1.000000     0.000000     0.000000     0.000000     0.000000     0.000000
 
 Subroutine IBZKPT returns following result:
 ===========================================
 
 Found     14 irreducible k-points:
 
 Following reciprocal coordinates:
            Coordinates               Weight
  0.000000  0.000000  0.000000      1.000000
  0.333333 -0.000000  0.000000      2.000000
  0.000000  0.333333  0.000000      2.000000
  0.333333  0.333333  0.000000      2.000000
 -0.333333  0.333333  0.000000      2.000000
  0.000000  0.000000  0.333333      2.000000
  0.333333 -0.000000  0.333333      2.000000
 -0.333333  0.000000  0.333333      2.000000
  0.000000  0.333333  0.333333      2.000000
  0.333333  0.333333  0.333333      2.000000
 -0.333333  0.333333  0.333333      2.000000
  0.000000 -0.333333  0.333333      2.000000
  0.333333 -0.333333  0.333333      2.000000
 -0.333333 -0.333333  0.333333      2.000000
 
 Following cartesian coordinates:
            Coordinates               Weight
  0.000000  0.000000  0.000000      1.000000
  0.076225  0.044009  0.000000      2.000000
  0.000000  0.088017  0.000000      2.000000
  0.076225  0.132026  0.000000      2.000000
 -0.076225  0.044009  0.000000      2.000000
  0.000000  0.000000  0.031138      2.000000
  0.076225  0.044009  0.031138      2.000000
 -0.076225 -0.044009  0.031138      2.000000
  0.000000  0.088017  0.031138      2.000000
  0.076225  0.132026  0.031138      2.000000
 -0.076225  0.044009  0.031138      2.000000
  0.000000 -0.088017  0.031138      2.000000
  0.076225 -0.044009  0.031138      2.000000
 -0.076225 -0.132026  0.031138      2.000000
 

 ----------------------------------------------------------------------------- 
|                                                                             |
|           W    W    AA    RRRRR   N    N  II  N    N   GGGG   !!!           |
|           W    W   A  A   R    R  NN   N  II  NN   N  G    G  !!!           |
|           W    W  A    A  R    R  N N  N  II  N N  N  G       !!!           |
|           W WW W  AAAAAA  RRRRR   N  N N  II  N  N N  G  GGG   !            |
|           WW  WW  A    A  R   R   N   NN  II  N   NN  G    G                |
|           W    W  A    A  R    R  N    N  II  N    N   GGGG   !!!           |
|                                                                             |
|      The number of bands has been changed from the values supplied          |
|      in the INCAR file. This is a result of running the parallel version.   |
|      The orbitals not found in the WAVECAR file will be initialized with    |
|      random numbers, which is usually adequate. For correlated              |
|      calculations, however, you should redo the groundstate calculation.    |
|      I found NBANDS    =        8  now  NBANDS  =      64                   |
|                                                                             |
 ----------------------------------------------------------------------------- 



--------------------------------------------------------------------------------------------------------




 Dimension of arrays:
   k-points           NKPTS =     14   k-points in BZ     NKDIM =     14   number of bands    NBANDS=     64
   number of dos      NEDOS =    301   number of ions     NIONS =      6
   non local maximal  LDIM  =      6   non local SUM 2l+1 LMDIM =     18
   total plane-waves  NPLWV =  31104
   max r-space proj   IRMAX =      1   max aug-charges    IRDMAX=  10403
   dimension x,y,z NGX =    24 NGY =   24 NGZ =   54
   dimension x,y,z NGXF=    48 NGYF=   48 NGZF=  108
   support grid    NGXF=    48 NGYF=   48 NGZF=  108
   ions per type =               3   3
   NGX,Y,Z   is equivalent  to a cutoff of   9.12,  9.12,  8.39 a.u.
   NGXF,Y,Z  is equivalent  to a cutoff of  18.25, 18.25, 16.77 a.u.

 SYSTEM =  unknown system                          
 POSCAR =  Zn3 Te3                                 

 Startparameter for this run:
   NWRITE =      2    write-flag & timer
   PREC   = normal    normal or accurate (medium, high low for compatibility)
   ISTART =      0    job   : 0-new  1-cont  2-samecut
   ICHARG =      2    charge: 1-file 2-atom 10-const
   ISPIN  =      1    spin polarized calculation?
   LNONCOLLINEAR =      F non collinear calculations
   LSORBIT =      F    spin-orbit coupling
   INIWAV =      1    electr: 0-lowe 1-rand  2-diag
   LASPH  =      F    aspherical Exc in radial PAW
   METAGGA=      F    non-selfconsistent MetaGGA calc.

 Electronic Relaxation 1
   ENCUT  =  400.0 eV  29.40 Ry    5.42 a.u.   7.13  7.13 17.46*2*pi/ulx,y,z
   ENINI  =  400.0     initial cutoff
   ENAUG  =  575.9 eV  augmentation charge cutoff
   NELM   =     60;   NELMIN=  2; NELMDL= -5     # of ELM steps 
   EDIFF  = 0.4E-03   stopping-criterion for ELM
   LREAL  =      F    real-space projection
   NLSPLINE    = F    spline interpolate recip. space projectors
   LCOMPAT=      F    compatible to vasp.4.4
   GGA_COMPAT  = T    GGA compatible to vasp.4.4-vasp.4.6
   LMAXPAW     = -100 max onsite density
   LMAXMIX     =    2 max onsite mixed and CHGCAR
   VOSKOWN=      0    Vosko Wilk Nusair interpolation
   ROPT   =    0.00000   0.00000
 Ionic relaxation
   EDIFFG = -.1E-01   stopping-criterion for IOM
   NSW    =     15    number of steps for IOM
   NBLOCK =      1;   KBLOCK =     15    inner block; outer block 
   IBRION =      1    ionic relax: 0-MD 1-quasi-New 2-CG
   NFREE  =      0    steps in history (QN), initial steepest desc. (CG)
   ISIF   =      3    stress and relaxation
   IWAVPR =     11    prediction:  0-non 1-charg 2-wave 3-comb
   ISYM   =      2    0-nonsym 1-usesym 2-fastsym
   LCORR  =      T    Harris-Foulkes like correction to forces

   POTIM  = 0.5000    time-step for ionic-motion
   TEIN   =    0.0    initial temperature
   TEBEG  =    0.0;   TEEND  =   0.0 temperature during run
   SMASS  =  -3.00    Nose mass-parameter (am)
   estimated Nose-frequenzy (Omega)   =  0.10E-29 period in steps =****** mass=  -0.437E-27a.u.
   SCALEE = 1.0000    scale energy and forces
   NPACO  =    256;   APACO  = 16.0  distance and # of slots for P.C.
   PSTRESS=    0.0 pullay stress

  Mass of Ions in am
   POMASS =  65.39127.60
  Ionic Valenz
   ZVAL   =  12.00  6.00
  Atomic Wigner-Seitz radii
   RWIGS  =  -1.00 -1.00
  virtual crystal weights 
   VCA    =   1.00  1.00
   NELECT =      54.0000    total number of electrons
   NUPDOWN=      -1.0000    fix difference up-down

 DOS related values:
   EMIN   =  10.00;   EMAX   =-10.00  energy-range for DOS
   EFERMI =   0.00
   ISMEAR =     0;   SIGMA  =   0.20  broadening in eV -4-tet -1-fermi 0-gaus

 Electronic relaxation 2 (details)
   IALGO  =     38    algorithm
   LDIAG  =      T    sub-space diagonalisation (order eigenvalues)
   LSUBROT=      F    optimize rotation matrix (better conditioning)
   TURBO    =      0    0=normal 1=particle mesh
   IRESTART =      0    0=no restart 2=restart with 2 vectors
   NREBOOT  =      0    no. of reboots
   NMIN     =      0    reboot dimension
   EREF     =   0.00    reference energy to select bands
   IMIX   =      4    mixing-type and parameters
     AMIX     =   0.40;   BMIX     =  1.00
     AMIX_MAG =   1.60;   BMIX_MAG =  1.00
     AMIN     =   0.10
     WC   =   100.;   INIMIX=   1;  MIXPRE=   1;  MAXMIX= -45

 Intra band minimization:
   WEIMIN = 0.0010     energy-eigenvalue tresh-hold
   EBREAK =  0.16E-05  absolut break condition
   DEPER  =   0.30     relativ break condition  

   TIME   =   0.40     timestep for ELM

  volume/ion in A,a.u.               =      29.55       199.40
  Fermi-wavevector in a.u.,A,eV,Ry     =   1.101490  2.081515 16.507688  1.213281
  Thomas-Fermi vector in A             =   2.237918
 
 Write flags
   LWAVE        =      T    write WAVECAR
   LDOWNSAMPLE  =      F    k-point downsampling of WAVECAR
   LCHARG       =      T    write CHGCAR
   LVTOT        =      F    write LOCPOT, total local potential
   LVHAR        =      F    write LOCPOT, Hartree potential only
   LELF         =      F    write electronic localiz. function (ELF)
   LORBIT       =      0    0 simple, 1 ext, 2 COOP (PROOUT), +10 PAW based schemes


 Dipole corrections
   LMONO  =      F    monopole corrections only (constant potential shift)
   LDIPOL =      F    correct potential (dipole corrections)
   IDIPOL =      0    1-x, 2-y, 3-z, 4-all directions 
   EPSILON=  1.0000000 bulk dielectric constant

 Exchange correlation treatment:
   GGA     =    --    GGA type
   LEXCH   =     8    internal setting for exchange type
   VOSKOWN=      0    Vosko Wilk Nusair interpolation
   LHFCALC =     F    Hartree Fock is set to
   LHFONE  =     F    Hartree Fock one center treatment
   AEXX    =    0.0000 exact exchange contribution

 Linear response parameters
   LEPSILON=     F    determine dielectric tensor
   LRPA    =     F    only Hartree local field effects (RPA)
   LNABLA  =     F    use nabla operator in PAW spheres
   LVEL    =     F    velocity operator in full k-point grid
   LINTERFAST=   F  fast interpolation
   KINTER  =     0    interpolate to denser k-point grid
   CSHIFT  =0.1000    complex shift for real part using Kramers Kronig
   OMEGAMAX=  -1.0    maximum frequency
   DEG_THRESHOLD= 0.2000000E-02 threshold for treating states as degnerate
   RTIME   =   -0.100 relaxation time in fs
  (WPLASMAI=    0.000 imaginary part of plasma frequency in eV, 0.658/RTIME)
   DFIELD  = 0.0000000 0.0000000 0.0000000 field for delta impulse in time
 
 Orbital magnetization related:
   ORBITALMAG=     F  switch on orbital magnetization
   LCHIMAG   =     F  perturbation theory with respect to B field
   DQ        =  0.001000  dq finite difference perturbation B field
   LLRAUG    =     F  two centre corrections for induced B field



--------------------------------------------------------------------------------------------------------


 quasi-Newton-method for relaxation of ions
 charge density and potential will be updated during run
 non-spin polarized calculation
 Variant of blocked Davidson
 Davidson routine will perform the subspace rotation
 perform sub-space diagonalisation
    after iterative eigenvector-optimisation
 modified Broyden-mixing scheme, WC =      100.0
 initial mixing is a Kerker type mixing with AMIX =  0.4000 and BMIX =      1.0000
 Hartree-type preconditioning will be used
 using additional bands           37
 reciprocal scheme for non local part
 use partial core corrections
 calculate Harris-corrections to forces 
   (improved forces if not selfconsistent)
 use gradient corrections 
 use of overlap-Matrix (Vanderbilt PP)
 Gauss-broadening in eV      SIGMA  =   0.20


--------------------------------------------------------------------------------------------------------


  energy-cutoff  :      400.00
  volume of cell :      177.29
      direct lattice vectors                 reciprocal lattice vectors
     4.373000000  0.000000000  0.000000000     0.228675966  0.132026134  0.000000000
    -2.186500000  3.787129000  0.000000000     0.000000000  0.264052268  0.000000000
     0.000000000  0.000000000 10.705000000     0.000000000  0.000000000  0.093414292

  length of vectors
     4.373000000  4.372999921 10.705000000     0.264052263  0.264052268  0.093414292


 
 k-points in units of 2pi/SCALE and weight: Automatic kpoint scheme                 
   0.00000000  0.00000000  0.00000000       0.037
   0.07622532  0.04400871  0.00000000       0.074
   0.00000000  0.08801742  0.00000000       0.074
   0.07622532  0.13202613  0.00000000       0.074
  -0.07622532  0.04400871  0.00000000       0.074
   0.00000000  0.00000000  0.03113810       0.074
   0.07622532  0.04400871  0.03113810       0.074
  -0.07622532 -0.04400871  0.03113810       0.074
   0.00000000  0.08801742  0.03113810       0.074
   0.07622532  0.13202613  0.03113810       0.074
  -0.07622532  0.04400871  0.03113810       0.074
   0.00000000 -0.08801742  0.03113810       0.074
   0.07622532 -0.04400871  0.03113810       0.074
  -0.07622532 -0.13202613  0.03113810       0.074
 
 k-points in reciprocal lattice and weights: Automatic kpoint scheme                 
   0.00000000  0.00000000  0.00000000       0.037
   0.33333333 -0.00000000  0.00000000       0.074
   0.00000000  0.33333333  0.00000000       0.074
   0.33333333  0.33333333  0.00000000       0.074
  -0.33333333  0.33333333  0.00000000       0.074
   0.00000000  0.00000000  0.33333333       0.074
   0.33333333 -0.00000000  0.33333333       0.074
  -0.33333333  0.00000000  0.33333333       0.074
   0.00000000  0.33333333  0.33333333       0.074
   0.33333333  0.33333333  0.33333333       0.074
  -0.33333333  0.33333333  0.33333333       0.074
   0.00000000 -0.33333333  0.33333333       0.074
   0.33333333 -0.33333333  0.33333333       0.074
  -0.33333333 -0.33333333  0.33333333       0.074
 
 position of ions in fractional coordinates (direct lattice) 
   0.36060000  0.02120000  0.02650000
   0.66060000  0.63940000  0.69320000
   0.97880000  0.33940000  0.35980000
   0.02370000  0.35300000  0.11020000
   0.32930000  0.97630000  0.77680000
   0.64700000  0.67070000  0.44350000
 
 position of ions in cartesian coordinates  (Angst):
   1.53055000  0.08028713  0.28368250
   1.49075570  2.42149028  7.42070600
   3.53819430  1.28535158  3.85165900
  -0.66819440  1.33685654  1.17969100
  -0.69465105  3.69737404  8.31564400
   1.36284545  2.54002742  4.74766750
 


--------------------------------------------------------------------------------------------------------


 k-point  1 :   0.0000 0.0000 0.0000  plane waves:    3245
 k-point  2 :   0.3333-0.0000 0.0000  plane waves:    3222
 k-point  3 :   0.0000 0.3333 0.0000  plane waves:    3222
 k-point  4 :   0.3333 0.3333 0.0000  plane waves:    3219
 k-point  5 :  -0.3333 0.3333 0.0000  plane waves:    3222
 k-point  6 :   0.0000 0.0000 0.3333  plane waves:    3209
 k-point  7 :   0.3333-0.0000 0.3333  plane waves:    3206
 k-point  8 :  -0.3333 0.0000 0.3333  plane waves:    3206
 k-point  9 :   0.0000 0.3333 0.3333  plane waves:    3206
 k-point 10 :   0.3333 0.3333 0.3333  plane waves:    3249
 k-point 11 :  -0.3333 0.3333 0.3333  plane waves:    3206
 k-point 12 :   0.0000-0.3333 0.3333  plane waves:    3206
 k-point 13 :   0.3333-0.3333 0.3333  plane waves:    3206
 k-point 14 :  -0.3333-0.3333 0.3333  plane waves:    3249

 maximum and minimum number of plane-waves per node :      3249     3206

 maximum number of plane-waves:      3249
 maximum index in each direction: 
   IXMAX=    7   IYMAX=    7   IZMAX=   17
   IXMIN=   -7   IYMIN=   -7   IZMIN=  -17


 serial   3D FFT for wavefunctions
 parallel 3D FFT for charge:
    minimum data exchange during FFTs selected (reduces bandwidth)


 total amount of memory used by VASP MPI-rank0    46182. kBytes
=======================================================================

   base      :      30000. kBytes
   nonl-proj :      13473. kBytes
   fftplans  :        310. kBytes
   grid      :       1547. kBytes
   one-center:         93. kBytes
   wavefun   :        759. kBytes
 
     INWAV:  cpu time    0.0001: real time    0.0014
 Broyden mixing: mesh for mixing (old mesh)
   NGX = 15   NGY = 15   NGZ = 35
  (NGX  = 48   NGY  = 48   NGZ  =108)
  gives a total of   7875 points

 initial charge density was supplied:
 charge density of overlapping atoms calculated
 number of electron      54.0000000 magnetization 
 keeping initial charge density in first step


--------------------------------------------------------------------------------------------------------


 Maximum index for augmentation-charges          488 (set IRDMAX)


--------------------------------------------------------------------------------------------------------


 First call to EWALD:  gamma=   0.316
 Maximum number of real-space cells 4x 4x 2
 Maximum number of reciprocal cells 2x 2x 5

    FEWALD:  cpu time    0.0051: real time    0.0051


--------------------------------------- Iteration      1(   1)  ---------------------------------------


    POTLOK:  cpu time    0.0371: real time    0.0467
    SETDIJ:  cpu time    0.0117: real time    0.0124
     EDDAV:  cpu time    2.5444: real time    2.5808
       DOS:  cpu time    0.0040: real time    0.0044
    --------------------------------------------
      LOOP:  cpu time    2.5972: real time    2.6444

 eigenvalue-minimisations  :  1792
 total energy-change (2. order) : 0.6646869E+02  (-0.2340861E+04)
 number of electron      54.0000000 magnetization 
 augmentation part       54.0000000 magnetization 

 Free energy of the ion-electron system (eV)
  ---------------------------------------------------
  alpha Z        PSCENC =       124.48026401
  Ewald energy   TEWEN  =     -3287.13745895
  -Hartree energ DENC   =     -2310.80269432
  -exchange      EXHF   =         0.00000000
  -V(xc)+E(xc)   XCENC  =        86.31104968
  PAW double counting   =      4988.91998590    -5406.16159368
  entropy T*S    EENTRO =        -0.02067516
  eigenvalues    EBANDS =       -45.40447626
  atomic energy  EATOM  =      5916.28428415
  Solvation  Ediel_sol  =         0.00000000
  ---------------------------------------------------
  free energy    TOTEN  =        66.46868537 eV

  energy without entropy =       66.48936053  energy(sigma->0) =       66.47902295


--------------------------------------------------------------------------------------------------------




--------------------------------------- Iteration      1(   2)  ---------------------------------------


     EDDAV:  cpu time    6.0218: real time    6.1083
       DOS:  cpu time    0.0096: real time    0.0096
    --------------------------------------------
      LOOP:  cpu time    6.0314: real time    6.1179

 eigenvalue-minimisations  :  2688
 total energy-change (2. order) :-0.8146504E+02  (-0.8138176E+02)
 number of electron      54.0000000 magnetization 
 augmentation part       54.0000000 magnetization 

 Free energy of the ion-electron system (eV)
  ---------------------------------------------------
  alpha Z        PSCENC =       124.48026401
  Ewald energy   TEWEN  =     -3287.13745895
  -Hartree energ DENC   =     -2310.80269432
  -exchange      EXHF   =         0.00000000
  -V(xc)+E(xc)   XCENC  =        86.31104968
  PAW double counting   =      4988.91998590    -5406.16159368
  entropy T*S    EENTRO =        -0.00000064
  eigenvalues    EBANDS =      -126.89019267
  atomic energy  EATOM  =      5916.28428415
  Solvation  Ediel_sol  =         0.00000000
  ---------------------------------------------------
  free energy    TOTEN  =       -14.99635652 eV

  energy without entropy =      -14.99635588  energy(sigma->0) =      -14.99635620


--------------------------------------------------------------------------------------------------------




--------------------------------------- Iteration      1(   3)  ---------------------------------------


     EDDAV:  cpu time    2.6376: real time    2.6381
       DOS:  cpu time    0.0022: real time    0.0022
    --------------------------------------------
      LOOP:  cpu time    2.6398: real time    2.6403

 eigenvalue-minimisations  :  1792
 total energy-change (2. order) :-0.6699885E+00  (-0.6699885E+00)
 number of electron      54.0000000 magnetization 
 augmentation part       54.0000000 magnetization 

 Free energy of the ion-electron system (eV)
  ---------------------------------------------------
  alpha Z        PSCENC =       124.48026401
  Ewald energy   TEWEN  =     -3287.13745895
  -Hartree energ DENC   =     -2310.80269432
  -exchange      EXHF   =         0.00000000
  -V(xc)+E(xc)   XCENC  =        86.31104968
  PAW double counting   =      4988.91998590    -5406.16159368
  entropy T*S    EENTRO =        -0.00000051
  eigenvalues    EBANDS =      -127.56018130
  atomic energy  EATOM  =      5916.28428415
  Solvation  Ediel_sol  =         0.00000000
  ---------------------------------------------------
  free energy    TOTEN  =       -15.66634502 eV

  energy without entropy =      -15.66634451  energy(sigma->0) =      -15.66634477


--------------------------------------------------------------------------------------------------------




--------------------------------------- Iteration      1(   4)  ---------------------------------------


     EDDAV:  cpu time    8.9937: real time    9.1059
       DOS:  cpu time    0.0019: real time    0.0019
    --------------------------------------------
      LOOP:  cpu time    8.9957: real time    9.1078

 eigenvalue-minimisations  :  3520
 total energy-change (2. order) :-0.4120415E-02  (-0.4120415E-02)
 number of electron      54.0000000 magnetization 
 augmentation part       54.0000000 magnetization 

 Free energy of the ion-electron system (eV)
  ---------------------------------------------------
  alpha Z        PSCENC =       124.48026401
  Ewald energy   TEWEN  =     -3287.13745895
  -Hartree energ DENC   =     -2310.80269432
  -exchange      EXHF   =         0.00000000
  -V(xc)+E(xc)   XCENC  =        86.31104968
  PAW double counting   =      4988.91998590    -5406.16159368
  entropy T*S    EENTRO =        -0.00000051
  eigenvalues    EBANDS =      -127.56430172
  atomic energy  EATOM  =      5916.28428415
  Solvation  Ediel_sol  =         0.00000000
  ---------------------------------------------------
  free energy    TOTEN  =       -15.67046544 eV

  energy without entropy =      -15.67046493  energy(sigma->0) =      -15.67046518


--------------------------------------------------------------------------------------------------------




--------------------------------------- Iteration      1(   5)  ---------------------------------------


     EDDAV:  cpu time    2.2670: real time    2.2742
       DOS:  cpu time    0.0020: real time    0.0020
    CHARGE:  cpu time    0.0370: real time    0.0379
    MIXING:  cpu time    0.0034: real time    0.0042
    --------------------------------------------
      LOOP:  cpu time    2.3093: real time    2.3183

 eigenvalue-minimisations  :  1792
 total energy-change (2. order) :-0.1798126E-06  (-0.1799664E-06)
 number of electron      53.9999922 magnetization 
 augmentation part       20.2863315 magnetization 

 Broyden mixing:
  rms(total) = 0.73934E+00    rms(broyden)= 0.73932E+00
  rms(prec ) = 0.82930E+00
  weight for this iteration     100.00

 Free energy of the ion-electron system (eV)
  ---------------------------------------------------
  alpha Z        PSCENC =       124.48026401
  Ewald energy   TEWEN  =     -3287.13745895
  -Hartree energ DENC   =     -2310.80269432
  -exchange      EXHF   =         0.00000000
  -V(xc)+E(xc)   XCENC  =        86.31104968
  PAW double counting   =      4988.91998590    -5406.16159368
  entropy T*S    EENTRO =        -0.00000051
  eigenvalues    EBANDS =      -127.56430190
  atomic energy  EATOM  =      5916.28428415
  Solvation  Ediel_sol  =         0.00000000
  ---------------------------------------------------
  free energy    TOTEN  =       -15.67046562 eV

  energy without entropy =      -15.67046511  energy(sigma->0) =      -15.67046536


--------------------------------------------------------------------------------------------------------




--------------------------------------- Iteration      1(   6)  ---------------------------------------


    POTLOK:  cpu time    0.0254: real time    0.0414
    SETDIJ:  cpu time    0.0103: real time    0.0103
     EDDAV:  cpu time    3.4816: real time    3.4955
       DOS:  cpu time    0.0093: real time    0.0093
    CHARGE:  cpu time    0.0478: real time    0.0478
    MIXING:  cpu time    0.0025: real time    0.0025
    --------------------------------------------
      LOOP:  cpu time    3.5768: real time    3.6067

 eigenvalue-minimisations  :  2112
 total energy-change (2. order) : 0.5393188E+00  (-0.3009267E+00)
 number of electron      53.9999921 magnetization 
 augmentation part       20.6159668 magnetization 

 Broyden mixing:
  rms(total) = 0.56699E+00    rms(broyden)= 0.56698E+00
  rms(prec ) = 0.58407E+00
  weight for this iteration     100.00

 eigenvalues of (default mixing * dielectric matrix)
  average eigenvalue GAMMA=   1.5763
  1.5763

 Free energy of the ion-electron system (eV)
  ---------------------------------------------------
  alpha Z        PSCENC =       124.48026401
  Ewald energy   TEWEN  =     -3287.13745895
  -Hartree energ DENC   =     -2286.12499447
  -exchange      EXHF   =         0.00000000
  -V(xc)+E(xc)   XCENC  =        85.83572658
  PAW double counting   =      5252.47704383    -5662.58409017
  entropy T*S    EENTRO =        -0.00000691
  eigenvalues    EBANDS =      -158.36191487
  atomic energy  EATOM  =      5916.28428415
  Solvation  Ediel_sol  =         0.00000000
  ---------------------------------------------------
  free energy    TOTEN  =       -15.13114679 eV

  energy without entropy =      -15.13113989  energy(sigma->0) =      -15.13114334


--------------------------------------------------------------------------------------------------------




--------------------------------------- Iteration      1(   7)  ---------------------------------------


    POTLOK:  cpu time    0.0262: real time    0.0395
    SETDIJ:  cpu time    0.0115: real time    0.0115
     EDDAV:  cpu time    7.7607: real time    7.8239
       DOS:  cpu time    0.0081: real time    0.0081
    CHARGE:  cpu time    0.0665: real time    0.0665
    MIXING:  cpu time    0.0019: real time    0.0020
    --------------------------------------------
      LOOP:  cpu time    7.8749: real time    7.9515

 eigenvalue-minimisations  :  3392
 total energy-change (2. order) : 0.4907696E-01  (-0.2416034E-01)
 number of electron      53.9999922 magnetization 
 augmentation part       20.5814597 magnetization 

 Broyden mixing:
  rms(total) = 0.22500E+00    rms(broyden)= 0.22500E+00
  rms(prec ) = 0.23317E+00
  weight for this iteration     100.00

 eigenvalues of (default mixing * dielectric matrix)
  average eigenvalue GAMMA=   1.6778
  0.8701  2.4856

 Free energy of the ion-electron system (eV)
  ---------------------------------------------------
  alpha Z        PSCENC =       124.48026401
  Ewald energy   TEWEN  =     -3287.13745895
  -Hartree energ DENC   =     -2287.29579842
  -exchange      EXHF   =         0.00000000
  -V(xc)+E(xc)   XCENC  =        86.27154776
  PAW double counting   =      5601.31276826    -6017.03865942
  entropy T*S    EENTRO =        -0.00001646
  eigenvalues    EBANDS =      -151.95900077
  atomic energy  EATOM  =      5916.28428415
  Solvation  Ediel_sol  =         0.00000000
  ---------------------------------------------------
  free energy    TOTEN  =       -15.08206984 eV

  energy without entropy =      -15.08205338  energy(sigma->0) =      -15.08206161


--------------------------------------------------------------------------------------------------------




--------------------------------------- Iteration      1(   8)  ---------------------------------------


    POTLOK:  cpu time    0.0358: real time    0.0664
    SETDIJ:  cpu time    0.0130: real time    0.0130
     EDDAV:  cpu time    4.7457: real time    4.8327
       DOS:  cpu time    0.0022: real time    0.0022
    CHARGE:  cpu time    0.0355: real time    0.0355
    MIXING:  cpu time    0.0013: real time    0.0013
    --------------------------------------------
      LOOP:  cpu time    4.8336: real time    4.9512

 eigenvalue-minimisations  :  1984
 total energy-change (2. order) :-0.9031613E-03  (-0.3527088E-02)
 number of electron      53.9999922 magnetization 
 augmentation part       20.5981594 magnetization 

 Broyden mixing:
  rms(total) = 0.33658E-01    rms(broyden)= 0.33658E-01
  rms(prec ) = 0.38990E-01
  weight for this iteration     100.00

 eigenvalues of (default mixing * dielectric matrix)
  average eigenvalue GAMMA=   1.6187
  2.5394  0.9235  1.3932

 Free energy of the ion-electron system (eV)
  ---------------------------------------------------
  alpha Z        PSCENC =       124.48026401
  Ewald energy   TEWEN  =     -3287.13745895
  -Hartree energ DENC   =     -2284.43341787
  -exchange      EXHF   =         0.00000000
  -V(xc)+E(xc)   XCENC  =        86.40499062
  PAW double counting   =      5877.52199664    -6294.97660385
  entropy T*S    EENTRO =        -0.00002301
  eigenvalues    EBANDS =      -153.22700473
  atomic energy  EATOM  =      5916.28428415
  Solvation  Ediel_sol  =         0.00000000
  ---------------------------------------------------
  free energy    TOTEN  =       -15.08297300 eV

  energy without entropy =      -15.08294999  energy(sigma->0) =      -15.08296149


--------------------------------------------------------------------------------------------------------




--------------------------------------- Iteration      1(   9)  ---------------------------------------


    POTLOK:  cpu time    0.0274: real time    0.0275
    SETDIJ:  cpu time    0.0102: real time    0.0102
     EDDAV:  cpu time    5.4337: real time    5.4415
       DOS:  cpu time    0.0098: real time    0.0098
    CHARGE:  cpu time    0.0371: real time    0.0371
    MIXING:  cpu time    0.0015: real time    0.0015
    --------------------------------------------
      LOOP:  cpu time    5.5196: real time    5.5275

 eigenvalue-minimisations  :  2816
 total energy-change (2. order) : 0.2448441E-03  (-0.7813636E-03)
 number of electron      53.9999922 magnetization 
 augmentation part       20.5986080 magnetization 

 Broyden mixing:
  rms(total) = 0.95443E-02    rms(broyden)= 0.95442E-02
  rms(prec ) = 0.10582E-01
  weight for this iteration     100.00

 eigenvalues of (default mixing * dielectric matrix)
  average eigenvalue GAMMA=   1.4277
  2.4657  1.6298  0.8982  0.7171

 Free energy of the ion-electron system (eV)
  ---------------------------------------------------
  alpha Z        PSCENC =       124.48026401
  Ewald energy   TEWEN  =     -3287.13745895
  -Hartree energ DENC   =     -2284.17312079
  -exchange      EXHF   =         0.00000000
  -V(xc)+E(xc)   XCENC  =        86.39150372
  PAW double counting   =      5907.88753089    -6325.32945750
  entropy T*S    EENTRO =        -0.00001815
  eigenvalues    EBANDS =      -153.48625553
  atomic energy  EATOM  =      5916.28428415
  Solvation  Ediel_sol  =         0.00000000
  ---------------------------------------------------
  free energy    TOTEN  =       -15.08272815 eV

  energy without entropy =      -15.08271001  energy(sigma->0) =      -15.08271908


--------------------------------------------------------------------------------------------------------




--------------------------------------- Iteration      1(  10)  ---------------------------------------


    POTLOK:  cpu time    0.0317: real time    0.0317
    SETDIJ:  cpu time    0.0104: real time    0.0104
     EDDAV:  cpu time    5.5279: real time    5.5368
       DOS:  cpu time    0.0019: real time    0.0020
    --------------------------------------------
      LOOP:  cpu time    5.5718: real time    5.5808

 eigenvalue-minimisations  :  2624
 total energy-change (2. order) :-0.1648879E-03  (-0.2966263E-04)
 number of electron      53.9999922 magnetization 
 augmentation part       20.5986080 magnetization 

 Free energy of the ion-electron system (eV)
  ---------------------------------------------------
  alpha Z        PSCENC =       124.48026401
  Ewald energy   TEWEN  =     -3287.13745895
  -Hartree energ DENC   =     -2284.27723729
  -exchange      EXHF   =         0.00000000
  -V(xc)+E(xc)   XCENC  =        86.39402622
  PAW double counting   =      5904.46820353    -6321.89357230
  entropy T*S    EENTRO =        -0.00001740
  eigenvalues    EBANDS =      -153.40138501
  atomic energy  EATOM  =      5916.28428415
  Solvation  Ediel_sol  =         0.00000000
  ---------------------------------------------------
  free energy    TOTEN  =       -15.08289304 eV

  energy without entropy =      -15.08287564  energy(sigma->0) =      -15.08288434


--------------------------------------------------------------------------------------------------------




 average (electrostatic) potential at core
  the test charge radii are     0.9521  1.1897
  (the norm of the test charge is              1.0000)
       1 -36.2989       2 -36.2992       3 -36.2980       4 -90.8951       5 -90.8956
       6 -90.8935
 
 
 
 E-fermi :   3.3960     XC(G=0):  -8.7571     alpha+bet : -7.9814


 k-point     1 :       0.0000    0.0000    0.0000
  band No.  band energies     occupation 
      1      -8.6727      2.00000
      2      -8.1025      2.00000
      3      -8.1005      2.00000
      4      -3.9668      2.00000
      5      -3.9582      2.00000
      6      -3.9581      2.00000
      7      -3.9217      2.00000
      8      -3.9178      2.00000
      9      -3.9176      2.00000
     10      -3.9114      2.00000
     11      -3.8180      2.00000
     12      -3.8175      2.00000
     13      -3.7600      2.00000
     14      -3.7560      2.00000
     15      -3.7554      2.00000
     16      -3.7539      2.00000
     17      -3.7532      2.00000
     18      -3.7505      2.00000
     19      -1.1058      2.00000
     20      -1.1045      2.00000
     21       2.1520      2.00000
     22       2.1959      2.00000
     23       2.1960      2.00000
     24       2.2332      2.00000
     25       2.8542      1.99987
     26       2.8543      1.99987
     27       2.8615      1.99984
     28       3.8945      0.00042
     29       4.7169      0.00000
     30       4.7188      0.00000
     31       7.2488      0.00000
     32       7.2490      0.00000
     33       7.2618      0.00000
     34       7.8690      0.00000
     35       7.9595      0.00000
     36       7.9597      0.00000
     37       8.0574      0.00000
     38       9.7546      0.00000
     39       9.7576      0.00000
     40      10.1054      0.00000
     41      11.0823      0.00000
     42      11.0833      0.00000
     43      11.8082      0.00000
     44      11.8952      0.00000
     45      11.8954      0.00000
     46      12.0725      0.00000
     47      12.3852      0.00000
     48      12.3855      0.00000
     49      13.4212      0.00000
     50      13.4213      0.00000
     51      13.4232      0.00000
     52      15.2345      0.00000
     53      15.2351      0.00000
     54      16.1250      0.00000
     55      17.1224      0.00000
     56      17.2852      0.00000
     57      17.2853      0.00000
     58      17.4194      0.00000
     59      18.2071      0.00000
     60      18.2097      0.00000
     61      18.4550      0.00000
     62      18.5808      0.00000
     63      18.5811      0.00000
     64      18.7328      0.00000

 k-point     2 :       0.3333   -0.0000    0.0000
  band No.  band energies     occupation 
      1      -8.1396      2.00000
      2      -7.7964      2.00000
      3      -7.7287      2.00000
      4      -3.9286      2.00000
      5      -3.9123      2.00000
      6      -3.8997      2.00000
      7      -3.8929      2.00000
      8      -3.8851      2.00000
      9      -3.8524      2.00000
     10      -3.8455      2.00000
     11      -3.8382      2.00000
     12      -3.7699      2.00000
     13      -3.7581      2.00000
     14      -3.7564      2.00000
     15      -3.7478      2.00000
     16      -3.7394      2.00000
     17      -3.6509      2.00000
     18      -3.6379      2.00000
     19      -1.6045      2.00000
     20      -1.5135      2.00000
     21      -0.7218      2.00000
     22       0.3557      2.00000
     23       0.7463      2.00000
     24       1.0678      2.00000
     25       1.7696      2.00000
     26       1.9045      2.00000
     27       1.9278      2.00000
     28       5.3688      0.00000
     29       5.3983      0.00000
     30       5.8716      0.00000
     31       6.0909      0.00000
     32       7.3931      0.00000
     33       8.0313      0.00000
     34       8.5315      0.00000
     35       8.8083      0.00000
     36       8.9308      0.00000
     37       9.6735      0.00000
     38      10.3180      0.00000
     39      10.8874      0.00000
     40      11.1669      0.00000
     41      11.5015      0.00000
     42      11.8096      0.00000
     43      12.0927      0.00000
     44      12.5056      0.00000
     45      12.6477      0.00000
     46      13.9233      0.00000
     47      14.3515      0.00000
     48      14.7438      0.00000
     49      14.8110      0.00000
     50      15.5315      0.00000
     51      15.7726      0.00000
     52      16.1092      0.00000
     53      16.6782      0.00000
     54      16.8081      0.00000
     55      17.2560      0.00000
     56      17.5178      0.00000
     57      17.6840      0.00000
     58      17.8176      0.00000
     59      18.0970      0.00000
     60      18.1593      0.00000
     61      18.2281      0.00000
     62      18.4501      0.00000
     63      18.8254      0.00000
     64      19.4599      0.00000

 k-point     3 :       0.0000    0.3333    0.0000
  band No.  band energies     occupation 
      1      -8.1396      2.00000
      2      -7.7967      2.00000
      3      -7.7284      2.00000
      4      -3.9286      2.00000
      5      -3.9122      2.00000
      6      -3.8999      2.00000
      7      -3.8927      2.00000
      8      -3.8851      2.00000
      9      -3.8525      2.00000
     10      -3.8455      2.00000
     11      -3.8381      2.00000
     12      -3.7699      2.00000
     13      -3.7582      2.00000
     14      -3.7564      2.00000
     15      -3.7477      2.00000
     16      -3.7394      2.00000
     17      -3.6510      2.00000
     18      -3.6378      2.00000
     19      -1.6045      2.00000
     20      -1.5135      2.00000
     21      -0.7218      2.00000
     22       0.3557      2.00000
     23       0.7462      2.00000
     24       1.0678      2.00000
     25       1.7697      2.00000
     26       1.9046      2.00000
     27       1.9277      2.00000
     28       5.3684      0.00000
     29       5.3987      0.00000
     30       5.8716      0.00000
     31       6.0910      0.00000
     32       7.3927      0.00000
     33       8.0312      0.00000
     34       8.5316      0.00000
     35       8.8082      0.00000
     36       8.9308      0.00000
     37       9.6736      0.00000
     38      10.3180      0.00000
     39      10.8874      0.00000
     40      11.1669      0.00000
     41      11.5013      0.00000
     42      11.8096      0.00000
     43      12.0928      0.00000
     44      12.5057      0.00000
     45      12.6478      0.00000
     46      13.9233      0.00000
     47      14.3514      0.00000
     48      14.7436      0.00000
     49      14.8111      0.00000
     50      15.5315      0.00000
     51      15.7728      0.00000
     52      16.1090      0.00000
     53      16.6784      0.00000
     54      16.8081      0.00000
     55      17.2562      0.00000
     56      17.5177      0.00000
     57      17.6836      0.00000
     58      17.8179      0.00000
     59      18.0969      0.00000
     60      18.1590      0.00000
     61      18.2289      0.00000
     62      18.4500      0.00000
     63      18.8253      0.00000
     64      19.4597      0.00000

 k-point     4 :       0.3333    0.3333    0.0000
  band No.  band energies     occupation 
      1      -7.6816      2.00000
      2      -7.6461      2.00000
      3      -7.6443      2.00000
      4      -3.8969      2.00000
      5      -3.8959      2.00000
      6      -3.8897      2.00000
      7      -3.8709      2.00000
      8      -3.8643      2.00000
      9      -3.8603      2.00000
     10      -3.7792      2.00000
     11      -3.7776      2.00000
     12      -3.7762      2.00000
     13      -3.7564      2.00000
     14      -3.7534      2.00000
     15      -3.7525      2.00000
     16      -3.5542      2.00000
     17      -3.5415      2.00000
     18      -3.5332      2.00000
     19      -1.8172      2.00000
     20      -1.7305      2.00000
     21      -1.7220      2.00000
     22      -0.1125      2.00000
     23      -0.0987      2.00000
     24      -0.0844      2.00000
     25       1.3436      2.00000
     26       1.4152      2.00000
     27       1.4737      2.00000
     28       5.5504      0.00000
     29       5.8027      0.00000
     30       5.8127      0.00000
     31       8.2998      0.00000
     32       8.3803      0.00000
     33       8.3847      0.00000
     34       9.7150      0.00000
     35       9.9375      0.00000
     36       9.9520      0.00000
     37      10.1576      0.00000
     38      10.2392      0.00000
     39      10.2798      0.00000
     40      10.3183      0.00000
     41      10.4183      0.00000
     42      10.4827      0.00000
     43      11.9001      0.00000
     44      11.9235      0.00000
     45      12.0945      0.00000
     46      15.6945      0.00000
     47      15.7487      0.00000
     48      15.8363      0.00000
     49      15.9933      0.00000
     50      16.0649      0.00000
     51      16.1065      0.00000
     52      17.1969      0.00000
     53      17.2160      0.00000
     54      17.4332      0.00000
     55      18.0163      0.00000
     56      18.0451      0.00000
     57      18.1391      0.00000
     58      18.6282      0.00000
     59      18.6460      0.00000
     60      18.6617      0.00000
     61      18.9548      0.00000
     62      18.9571      0.00000
     63      18.9833      0.00000
     64      20.4248      0.00000

 k-point     5 :      -0.3333    0.3333    0.0000
  band No.  band energies     occupation 
      1      -8.1397      2.00000
      2      -7.7965      2.00000
      3      -7.7286      2.00000
      4      -3.9286      2.00000
      5      -3.9123      2.00000
      6      -3.8999      2.00000
      7      -3.8927      2.00000
      8      -3.8851      2.00000
      9      -3.8525      2.00000
     10      -3.8455      2.00000
     11      -3.8381      2.00000
     12      -3.7701      2.00000
     13      -3.7581      2.00000
     14      -3.7562      2.00000
     15      -3.7478      2.00000
     16      -3.7395      2.00000
     17      -3.6509      2.00000
     18      -3.6378      2.00000
     19      -1.6045      2.00000
     20      -1.5135      2.00000
     21      -0.7218      2.00000
     22       0.3557      2.00000
     23       0.7462      2.00000
     24       1.0678      2.00000
     25       1.7696      2.00000
     26       1.9045      2.00000
     27       1.9280      2.00000
     28       5.3689      0.00000
     29       5.3979      0.00000
     30       5.8718      0.00000
     31       6.0910      0.00000
     32       7.3931      0.00000
     33       8.0308      0.00000
     34       8.5316      0.00000
     35       8.8084      0.00000
     36       8.9308      0.00000
     37       9.6736      0.00000
     38      10.3180      0.00000
     39      10.8875      0.00000
     40      11.1668      0.00000
     41      11.5013      0.00000
     42      11.8095      0.00000
     43      12.0929      0.00000
     44      12.5056      0.00000
     45      12.6478      0.00000
     46      13.9233      0.00000
     47      14.3515      0.00000
     48      14.7439      0.00000
     49      14.8109      0.00000
     50      15.5315      0.00000
     51      15.7727      0.00000
     52      16.1091      0.00000
     53      16.6783      0.00000
     54      16.8081      0.00000
     55      17.2560      0.00000
     56      17.5177      0.00000
     57      17.6838      0.00000
     58      17.8178      0.00000
     59      18.0970      0.00000
     60      18.1594      0.00000
     61      18.2284      0.00000
     62      18.4500      0.00000
     63      18.8253      0.00000
     64      19.4599      0.00000

 k-point     6 :       0.0000    0.0000    0.3333
  band No.  band energies     occupation 
      1      -8.5935      2.00000
      2      -8.3781      2.00000
      3      -7.8970      2.00000
      4      -3.9586      2.00000
      5      -3.9517      2.00000
      6      -3.9513      2.00000
      7      -3.9335      2.00000
      8      -3.9329      2.00000
      9      -3.9204      2.00000
     10      -3.9070      2.00000
     11      -3.9053      2.00000
     12      -3.7613      2.00000
     13      -3.7591      2.00000
     14      -3.7566      2.00000
     15      -3.7536      2.00000
     16      -3.7510      2.00000
     17      -3.7496      2.00000
     18      -3.6584      2.00000
     19      -1.9509      2.00000
     20       0.1975      2.00000
     21       1.7028      2.00000
     22       2.0438      2.00000
     23       2.0471      2.00000
     24       2.4564      2.00000
     25       2.4607      2.00000
     26       2.7311      2.00000
     27       2.7334      2.00000
     28       4.5777      0.00000
     29       4.6619      0.00000
     30       4.8981      0.00000
     31       7.3269      0.00000
     32       7.4225      0.00000
     33       7.4516      0.00000
     34       7.8069      0.00000
     35       7.8411      0.00000
     36       7.8938      0.00000
     37       7.9681      0.00000
     38       8.3082      0.00000
     39      10.3968      0.00000
     40      10.7697      0.00000
     41      11.2674      0.00000
     42      11.3753      0.00000
     43      11.3840      0.00000
     44      11.6959      0.00000
     45      11.7152      0.00000
     46      11.9704      0.00000
     47      12.9667      0.00000
     48      13.1248      0.00000
     49      13.2251      0.00000
     50      13.4382      0.00000
     51      14.4552      0.00000
     52      14.5277      0.00000
     53      14.9383      0.00000
     54      15.2966      0.00000
     55      15.3461      0.00000
     56      16.2637      0.00000
     57      16.2750      0.00000
     58      17.1141      0.00000
     59      18.9792      0.00000
     60      18.9895      0.00000
     61      19.7900      0.00000
     62      19.8695      0.00000
     63      20.4265      0.00000
     64      20.7886      0.00000

 k-point     7 :       0.3333   -0.0000    0.3333
  band No.  band energies     occupation 
      1      -8.1040      2.00000
      2      -7.9054      2.00000
      3      -7.6552      2.00000
      4      -3.9250      2.00000
      5      -3.9208      2.00000
      6      -3.9033      2.00000
      7      -3.8917      2.00000
      8      -3.8702      2.00000
      9      -3.8633      2.00000
     10      -3.8579      2.00000
     11      -3.8095      2.00000
     12      -3.7812      2.00000
     13      -3.7558      2.00000
     14      -3.7539      2.00000
     15      -3.7520      2.00000
     16      -3.7395      2.00000
     17      -3.7262      2.00000
     18      -3.5461      2.00000
     19      -1.7550      2.00000
     20      -1.1062      2.00000
     21      -0.9944      2.00000
     22      -0.1054      2.00000
     23       1.2042      2.00000
     24       1.2117      2.00000
     25       1.4130      2.00000
     26       2.1903      2.00000
     27       2.1964      2.00000
     28       4.7183      0.00000
     29       5.2365      0.00000
     30       5.7290      0.00000
     31       6.0332      0.00000
     32       7.9271      0.00000
     33       7.9586      0.00000
     34       8.3873      0.00000
     35       9.7153      0.00000
     36       9.8843      0.00000
     37      10.2195      0.00000
     38      10.3780      0.00000
     39      10.5531      0.00000
     40      10.6002      0.00000
     41      10.8370      0.00000
     42      11.1273      0.00000
     43      11.9023      0.00000
     44      11.9522      0.00000
     45      12.0272      0.00000
     46      13.6588      0.00000
     47      14.9146      0.00000
     48      15.2091      0.00000
     49      15.8067      0.00000
     50      16.0080      0.00000
     51      16.4863      0.00000
     52      16.5173      0.00000
     53      16.8200      0.00000
     54      17.1306      0.00000
     55      17.2424      0.00000
     56      17.2970      0.00000
     57      17.3263      0.00000
     58      17.4270      0.00000
     59      18.0461      0.00000
     60      18.2231      0.00000
     61      18.3402      0.00000
     62      18.4946      0.00000
     63      18.5444      0.00000
     64      18.7525      0.00000

 k-point     8 :      -0.3333    0.0000    0.3333
  band No.  band energies     occupation 
      1      -8.0652      2.00000
      2      -7.9719      2.00000
      3      -7.6260      2.00000
      4      -3.9211      2.00000
      5      -3.9130      2.00000
      6      -3.9113      2.00000
      7      -3.8892      2.00000
      8      -3.8861      2.00000
      9      -3.8735      2.00000
     10      -3.8457      2.00000
     11      -3.8067      2.00000
     12      -3.7730      2.00000
     13      -3.7570      2.00000
     14      -3.7510      2.00000
     15      -3.7455      2.00000
     16      -3.7431      2.00000
     17      -3.7239      2.00000
     18      -3.5475      2.00000
     19      -1.8153      2.00000
     20      -1.4161      2.00000
     21      -0.5926      2.00000
     22       0.1446      2.00000
     23       1.1359      2.00000
     24       1.3507      2.00000
     25       1.4037      2.00000
     26       1.5397      2.00000
     27       2.1351      2.00000
     28       5.2796      0.00000
     29       5.5124      0.00000
     30       5.6508      0.00000
     31       6.5743      0.00000
     32       7.1872      0.00000
     33       7.8533      0.00000
     34       8.1082      0.00000
     35       9.0083      0.00000
     36       9.5481      0.00000
     37       9.7786      0.00000
     38      10.0917      0.00000
     39      10.5873      0.00000
     40      11.0354      0.00000
     41      11.5423      0.00000
     42      11.7530      0.00000
     43      11.9904      0.00000
     44      13.2058      0.00000
     45      13.2395      0.00000
     46      13.6284      0.00000
     47      13.7731      0.00000
     48      14.5184      0.00000
     49      15.0110      0.00000
     50      15.4034      0.00000
     51      15.9940      0.00000
     52      16.1053      0.00000
     53      16.3617      0.00000
     54      16.5253      0.00000
     55      17.2806      0.00000
     56      17.4356      0.00000
     57      17.6566      0.00000
     58      17.7332      0.00000
     59      17.9777      0.00000
     60      18.3156      0.00000
     61      18.6166      0.00000
     62      18.7047      0.00000
     63      19.0630      0.00000
     64      19.8671      0.00000

 k-point     9 :       0.0000    0.3333    0.3333
  band No.  band energies     occupation 
      1      -8.0651      2.00000
      2      -7.9720      2.00000
      3      -7.6260      2.00000
      4      -3.9213      2.00000
      5      -3.9128      2.00000
      6      -3.9113      2.00000
      7      -3.8891      2.00000
      8      -3.8861      2.00000
      9      -3.8735      2.00000
     10      -3.8457      2.00000
     11      -3.8067      2.00000
     12      -3.7732      2.00000
     13      -3.7571      2.00000
     14      -3.7509      2.00000
     15      -3.7453      2.00000
     16      -3.7432      2.00000
     17      -3.7239      2.00000
     18      -3.5475      2.00000
     19      -1.8154      2.00000
     20      -1.4161      2.00000
     21      -0.5928      2.00000
     22       0.1447      2.00000
     23       1.1359      2.00000
     24       1.3497      2.00000
     25       1.4047      2.00000
     26       1.5397      2.00000
     27       2.1351      2.00000
     28       5.2795      0.00000
     29       5.5125      0.00000
     30       5.6510      0.00000
     31       6.5744      0.00000
     32       7.1871      0.00000
     33       7.8528      0.00000
     34       8.1082      0.00000
     35       9.0087      0.00000
     36       9.5480      0.00000
     37       9.7784      0.00000
     38      10.0920      0.00000
     39      10.5873      0.00000
     40      11.0352      0.00000
     41      11.5423      0.00000
     42      11.7530      0.00000
     43      11.9906      0.00000
     44      13.2061      0.00000
     45      13.2392      0.00000
     46      13.6285      0.00000
     47      13.7729      0.00000
     48      14.5184      0.00000
     49      15.0110      0.00000
     50      15.4033      0.00000
     51      15.9940      0.00000
     52      16.1055      0.00000
     53      16.3615      0.00000
     54      16.5254      0.00000
     55      17.2804      0.00000
     56      17.4355      0.00000
     57      17.6567      0.00000
     58      17.7332      0.00000
     59      17.9780      0.00000
     60      18.3152      0.00000
     61      18.6166      0.00000
     62      18.7051      0.00000
     63      19.0628      0.00000
     64      19.8651      0.00000

 k-point    10 :       0.3333    0.3333    0.3333
  band No.  band energies     occupation 
      1      -7.6748      2.00000
      2      -7.6622      2.00000
      3      -7.6350      2.00000
      4      -3.8948      2.00000
      5      -3.8898      2.00000
      6      -3.8878      2.00000
      7      -3.8741      2.00000
      8      -3.8693      2.00000
      9      -3.8624      2.00000
     10      -3.7770      2.00000
     11      -3.7757      2.00000
     12      -3.7738      2.00000
     13      -3.7589      2.00000
     14      -3.7566      2.00000
     15      -3.7561      2.00000
     16      -3.5506      2.00000
     17      -3.5438      2.00000
     18      -3.5267      2.00000
     19      -1.8189      2.00000
     20      -1.8074      2.00000
     21      -1.7436      2.00000
     22       0.0197      2.00000
     23       0.0824      2.00000
     24       0.1378      2.00000
     25       1.0960      2.00000
     26       1.1725      2.00000
     27       1.2464      2.00000
     28       6.0057      0.00000
     29       6.3634      0.00000
     30       6.4159      0.00000
     31       7.8076      0.00000
     32       7.8784      0.00000
     33       7.9944      0.00000
     34       8.8967      0.00000
     35       8.9630      0.00000
     36       9.0214      0.00000
     37      10.1186      0.00000
     38      10.2514      0.00000
     39      10.2662      0.00000
     40      10.9783      0.00000
     41      11.0270      0.00000
     42      11.0278      0.00000
     43      12.9235      0.00000
     44      13.1892      0.00000
     45      13.3187      0.00000
     46      14.9567      0.00000
     47      14.9674      0.00000
     48      15.0012      0.00000
     49      15.4198      0.00000
     50      15.4958      0.00000
     51      15.4974      0.00000
     52      17.6143      0.00000
     53      17.6335      0.00000
     54      17.6805      0.00000
     55      17.7918      0.00000
     56      17.7933      0.00000
     57      17.8560      0.00000
     58      18.5327      0.00000
     59      18.5693      0.00000
     60      18.6366      0.00000
     61      19.5688      0.00000
     62      19.6399      0.00000
     63      19.6475      0.00000
     64      20.1017      0.00000

 k-point    11 :      -0.3333    0.3333    0.3333
  band No.  band energies     occupation 
      1      -8.1040      2.00000
      2      -7.9054      2.00000
      3      -7.6551      2.00000
      4      -3.9249      2.00000
      5      -3.9208      2.00000
      6      -3.9032      2.00000
      7      -3.8918      2.00000
      8      -3.8701      2.00000
      9      -3.8634      2.00000
     10      -3.8577      2.00000
     11      -3.8095      2.00000
     12      -3.7812      2.00000
     13      -3.7559      2.00000
     14      -3.7537      2.00000
     15      -3.7523      2.00000
     16      -3.7396      2.00000
     17      -3.7260      2.00000
     18      -3.5461      2.00000
     19      -1.7550      2.00000
     20      -1.1060      2.00000
     21      -0.9946      2.00000
     22      -0.1053      2.00000
     23       1.2041      2.00000
     24       1.2117      2.00000
     25       1.4130      2.00000
     26       2.1902      2.00000
     27       2.1965      2.00000
     28       4.7183      0.00000
     29       5.2364      0.00000
     30       5.7291      0.00000
     31       6.0333      0.00000
     32       7.9273      0.00000
     33       7.9584      0.00000
     34       8.3872      0.00000
     35       9.7150      0.00000
     36       9.8842      0.00000
     37      10.2198      0.00000
     38      10.3780      0.00000
     39      10.5532      0.00000
     40      10.6002      0.00000
     41      10.8369      0.00000
     42      11.1272      0.00000
     43      11.9019      0.00000
     44      11.9523      0.00000
     45      12.0275      0.00000
     46      13.6587      0.00000
     47      14.9147      0.00000
     48      15.2090      0.00000
     49      15.8068      0.00000
     50      16.0081      0.00000
     51      16.4865      0.00000
     52      16.5174      0.00000
     53      16.8200      0.00000
     54      17.1311      0.00000
     55      17.2423      0.00000
     56      17.2967      0.00000
     57      17.3265      0.00000
     58      17.4265      0.00000
     59      18.0462      0.00000
     60      18.2232      0.00000
     61      18.3399      0.00000
     62      18.4948      0.00000
     63      18.5442      0.00000
     64      18.7526      0.00000

 k-point    12 :       0.0000   -0.3333    0.3333
  band No.  band energies     occupation 
      1      -8.1040      2.00000
      2      -7.9055      2.00000
      3      -7.6551      2.00000
      4      -3.9250      2.00000
      5      -3.9207      2.00000
      6      -3.9033      2.00000
      7      -3.8917      2.00000
      8      -3.8701      2.00000
      9      -3.8631      2.00000
     10      -3.8582      2.00000
     11      -3.8095      2.00000
     12      -3.7811      2.00000
     13      -3.7560      2.00000
     14      -3.7542      2.00000
     15      -3.7518      2.00000
     16      -3.7395      2.00000
     17      -3.7261      2.00000
     18      -3.5461      2.00000
     19      -1.7550      2.00000
     20      -1.1062      2.00000
     21      -0.9945      2.00000
     22      -0.1052      2.00000
     23       1.2040      2.00000
     24       1.2118      2.00000
     25       1.4130      2.00000
     26       2.1903      2.00000
     27       2.1964      2.00000
     28       4.7182      0.00000
     29       5.2367      0.00000
     30       5.7289      0.00000
     31       6.0334      0.00000
     32       7.9269      0.00000
     33       7.9584      0.00000
     34       8.3874      0.00000
     35       9.7151      0.00000
     36       9.8843      0.00000
     37      10.2196      0.00000
     38      10.3782      0.00000
     39      10.5531      0.00000
     40      10.6001      0.00000
     41      10.8371      0.00000
     42      11.1272      0.00000
     43      11.9018      0.00000
     44      11.9523      0.00000
     45      12.0276      0.00000
     46      13.6587      0.00000
     47      14.9147      0.00000
     48      15.2089      0.00000
     49      15.8068      0.00000
     50      16.0081      0.00000
     51      16.4865      0.00000
     52      16.5174      0.00000
     53      16.8199      0.00000
     54      17.1312      0.00000
     55      17.2424      0.00000
     56      17.2968      0.00000
     57      17.3258      0.00000
     58      17.4268      0.00000
     59      18.0463      0.00000
     60      18.2235      0.00000
     61      18.3399      0.00000
     62      18.4947      0.00000
     63      18.5445      0.00000
     64      18.7523      0.00000

 k-point    13 :       0.3333   -0.3333    0.3333
  band No.  band energies     occupation 
      1      -8.0652      2.00000
      2      -7.9719      2.00000
      3      -7.6260      2.00000
      4      -3.9212      2.00000
      5      -3.9129      2.00000
      6      -3.9114      2.00000
      7      -3.8892      2.00000
      8      -3.8861      2.00000
      9      -3.8734      2.00000
     10      -3.8456      2.00000
     11      -3.8067      2.00000
     12      -3.7732      2.00000
     13      -3.7569      2.00000
     14      -3.7508      2.00000
     15      -3.7452      2.00000
     16      -3.7435      2.00000
     17      -3.7240      2.00000
     18      -3.5475      2.00000
     19      -1.8153      2.00000
     20      -1.4161      2.00000
     21      -0.5927      2.00000
     22       0.1446      2.00000
     23       1.1359      2.00000
     24       1.3505      2.00000
     25       1.4039      2.00000
     26       1.5397      2.00000
     27       2.1352      2.00000
     28       5.2795      0.00000
     29       5.5125      0.00000
     30       5.6510      0.00000
     31       6.5741      0.00000
     32       7.1875      0.00000
     33       7.8529      0.00000
     34       8.1082      0.00000
     35       9.0086      0.00000
     36       9.5480      0.00000
     37       9.7784      0.00000
     38      10.0919      0.00000
     39      10.5873      0.00000
     40      11.0354      0.00000
     41      11.5422      0.00000
     42      11.7530      0.00000
     43      11.9904      0.00000
     44      13.2064      0.00000
     45      13.2389      0.00000
     46      13.6285      0.00000
     47      13.7730      0.00000
     48      14.5183      0.00000
     49      15.0112      0.00000
     50      15.4033      0.00000
     51      15.9939      0.00000
     52      16.1055      0.00000
     53      16.3614      0.00000
     54      16.5255      0.00000
     55      17.2804      0.00000
     56      17.4356      0.00000
     57      17.6566      0.00000
     58      17.7334      0.00000
     59      17.9777      0.00000
     60      18.3153      0.00000
     61      18.6166      0.00000
     62      18.7048      0.00000
     63      19.0632      0.00000
     64      19.8652      0.00000

 k-point    14 :      -0.3333   -0.3333    0.3333
  band No.  band energies     occupation 
      1      -7.6767      2.00000
      2      -7.6601      2.00000
      3      -7.6351      2.00000
      4      -3.8943      2.00000
      5      -3.8907      2.00000
      6      -3.8896      2.00000
      7      -3.8684      2.00000
      8      -3.8680      2.00000
      9      -3.8673      2.00000
     10      -3.7761      2.00000
     11      -3.7756      2.00000
     12      -3.7750      2.00000
     13      -3.7584      2.00000
     14      -3.7568      2.00000
     15      -3.7564      2.00000
     16      -3.5479      2.00000
     17      -3.5416      2.00000
     18      -3.5316      2.00000
     19      -1.8601      2.00000
     20      -1.7798      2.00000
     21      -1.7274      2.00000
     22       0.0570      2.00000
     23       0.0618      2.00000
     24       0.1213      2.00000
     25       1.0465      2.00000
     26       1.2186      2.00000
     27       1.2456      2.00000
     28       6.2176      0.00000
     29       6.2667      0.00000
     30       6.2769      0.00000
     31       7.7714      0.00000
     32       7.9216      0.00000
     33       8.0164      0.00000
     34       8.9148      0.00000
     35       8.9780      0.00000
     36       8.9821      0.00000
     37      10.1872      0.00000
     38      10.1942      0.00000
     39      10.2481      0.00000
     40      10.9678      0.00000
     41      11.0340      0.00000
     42      11.0380      0.00000
     43      13.0292      0.00000
     44      13.1343      0.00000
     45      13.2697      0.00000
     46      14.9696      0.00000
     47      14.9875      0.00000
     48      15.0046      0.00000
     49      15.3389      0.00000
     50      15.4565      0.00000
     51      15.5780      0.00000
     52      17.5249      0.00000
     53      17.6004      0.00000
     54      17.8003      0.00000
     55      17.8051      0.00000
     56      17.8064      0.00000
     57      17.8386      0.00000
     58      18.5473      0.00000
     59      18.5632      0.00000
     60      18.6194      0.00000
     61      19.5961      0.00000
     62      19.6329      0.00000
     63      19.6628      0.00000
     64      20.0396      0.00000


--------------------------------------------------------------------------------------------------------


 soft charge-density along one line, spin component           1
         0         1         2         3         4         5         6         7         8         9
 total charge-density along one line
 
 pseudopotential strength for first ion, spin component:           1
 -9.816   0.000  -0.002   0.002  -0.000 -10.179   0.000  -0.002
  0.000  -9.822   0.001   0.002  -0.001   0.000 -10.184   0.001
 -0.002   0.001  -9.823   0.000  -0.001  -0.002   0.001 -10.186
  0.002   0.002   0.000  -9.820   0.000   0.002   0.002   0.000
 -0.000  -0.001  -0.001   0.000  -9.816  -0.000  -0.001  -0.001
-10.179   0.000  -0.002   0.002  -0.000 -10.466   0.000  -0.002
  0.000 -10.184   0.001   0.002  -0.001   0.000 -10.471   0.001
 -0.002   0.001 -10.186   0.000  -0.001  -0.002   0.001 -10.473
  0.002   0.002   0.000 -10.183   0.000   0.002   0.001   0.000
 -0.000  -0.001  -0.001   0.000 -10.179  -0.000  -0.001  -0.001
 -0.000   0.000   0.000   0.000   0.000   0.000   0.000   0.000
  0.000   0.000   0.000   0.000   0.000   0.000   0.000   0.000
 -0.001   0.000  -0.000  -0.000  -0.002  -0.000   0.001  -0.000
 -0.000   0.001   0.004  -0.000  -0.000  -0.000   0.001   0.003
 -0.001  -0.000   0.000   0.000  -0.001  -0.001  -0.000   0.000
 -0.001   0.000  -0.000  -0.000  -0.003  -0.000   0.000  -0.000
 -0.000   0.001   0.004  -0.001  -0.000  -0.000   0.001   0.003
 -0.001  -0.000   0.000   0.000  -0.001  -0.001  -0.000   0.000
 total augmentation occupancy for first ion, spin component:           1
  2.919   0.002  -0.015   0.430  -0.003  -0.890  -0.003   0.015  -0.424   0.002  -0.025   0.000  -0.004  -0.003  -0.390   0.000
  0.002   2.641   0.072   0.004   0.420  -0.003  -0.615  -0.072  -0.006  -0.409  -0.054   0.008  -0.265   0.044  -0.003   0.030
 -0.015   0.072   3.116   0.017  -0.000   0.015  -0.072  -1.090  -0.016   0.001  -0.001  -0.000   0.017   0.445   0.011  -0.002
  0.430   0.004   0.017   2.636   0.003  -0.424  -0.006  -0.016  -0.612  -0.004  -0.023   0.003  -0.004   0.010  -0.270   0.001
 -0.003   0.420  -0.000   0.003   2.918   0.002  -0.409   0.001  -0.004  -0.889  -0.015  -0.001  -0.389   0.002  -0.004   0.042
 -0.890  -0.003   0.015  -0.424   0.002   0.855   0.005  -0.016   0.419  -0.002   0.025  -0.002   0.005   0.003   0.374  -0.001
 -0.003  -0.615  -0.072  -0.006  -0.409   0.005   0.582   0.072   0.007   0.399   0.053  -0.010   0.254  -0.042   0.003  -0.033
  0.015  -0.072  -1.090  -0.016   0.001  -0.016   0.072   1.057   0.016  -0.002   0.000   0.001  -0.017  -0.430  -0.011   0.003
 -0.424  -0.006  -0.016  -0.612  -0.004   0.419   0.007   0.016   0.580   0.006   0.023  -0.004   0.004  -0.008   0.259  -0.001
  0.002  -0.409   0.001  -0.004  -0.889  -0.002   0.399  -0.002   0.006   0.853   0.014   0.000   0.374  -0.002   0.005  -0.048
 -0.025  -0.054  -0.001  -0.023  -0.015   0.025   0.053   0.000   0.023   0.014   2.133  -0.388  -0.004  -0.008   0.007   0.002
  0.000   0.008  -0.000   0.003  -0.001  -0.002  -0.010   0.001  -0.004   0.000  -0.388   0.090   0.003  -0.002  -0.000  -0.001
 -0.004  -0.265   0.017  -0.004  -0.389   0.005   0.254  -0.017   0.004   0.374  -0.004   0.003   0.278   0.008   0.005  -0.036
 -0.003   0.044   0.445   0.010   0.002   0.003  -0.042  -0.430  -0.008  -0.002  -0.008  -0.002   0.008   0.271   0.004  -0.002
 -0.390  -0.003   0.011  -0.270  -0.004   0.374   0.003  -0.011   0.259   0.005   0.007  -0.000   0.005   0.004   0.282  -0.001
[...]
   45        eccp                                  0.147601                          672   3
   46        truncate_high_frequency_w1            0.003206                         3009   3
   47        setup_precond                         0.021108                          672   3
   48        hamiltmu                              7.030716                         2337   3
   49          vhamil                                0.610338                       2337   4
   50          overl1                                0.053328                       2337   4
   51          vnlac0                                2.469892                       2337   4
   52            gemm                                  1.909080                    14022   5
   53            work_mul_crexp                        0.464593                    14022   5
   54          kinhamil                              3.756067                       2337   4
   55            fftext_mpi                            3.688846                     2337   5
   56              fft3d_mpi                             3.466976                   2337   6
   57                fft3d                                 3.451588                 2337   7
   58        overl                                 0.101588                         4002   3
   59        orth1                                 2.213253                         6339   3
   60        apply_precond                         0.071202                         1665   3
   61        w1_projall                            1.724861                         1665   3
   62          proj1                                 1.711061                       1665   4
   63      set_charge                            1.424304                             29   2
   64        soft_charge                           1.224592                           29   3
   65          fftwav_mpi                            0.683550                        406   4
   66            fftwav                                0.682088                      406   5
   67              fft3d                                 0.629860                    406   6
   68          pw_charge                             0.059674                        406   4
   69          fft3d_mpi                             0.137695                         29   4
   70            fftbas_plan_mpi                       0.128112                       29   5
   71              dfftw_execute                         0.009929                     87   6
   72              map_backward                          0.114536                     58   6
   73                map_gather                            0.003419                   58   7
   74                m_alltoallv_z                         0.109855                   58   7
   75                map_scatter                           0.000717                   58   7
   76        depsum                                0.095446                           29   3
   77        fft3d_mpi                             0.067467                           29   3
   78          fftbas_plan_mpi                       0.067024                         29   4
   79            dfftw_execute                         0.003954                       87   5
   80            map_backward                          0.058350                       58   5
   81              map_gather                            0.000673                     29   6
   82              m_alltoallv_z                         0.056463                     29   6
   83              map_scatter                           0.000859                     29   6
   84      brmix                                 0.058583                             29   2
   85        brpre                                 0.001347                           29   3
   86        setg0                                 0.020951                           44   3
   87        broyd                                 0.010520                           29   3
   88          brsav                                 0.000617                        173   4
   89          brget                                 0.000683                        311   4
   90      force_and_stress                     14.485224                             15   2
   91        set_charge                            0.829835                           15   3
   92          soft_charge                           0.692868                         15   4
   93            fftwav_mpi                            0.347673                      210   5
   94              fftwav                                0.346959                    210   6
   95                fft3d                                 0.319350                  210   7
   96            pw_charge                             0.030749                      210   5
   97            fft3d_mpi                             0.082909                       15   5
   98              fftbas_plan_mpi                       0.077921                     15   6
   99                dfftw_execute                         0.005083                   45   7
  100                map_backward                          0.070946                   30   7
  101                  map_gather                            0.001702                 30   8
  102                  m_alltoallv_z                         0.068590                 30   8
  103                  map_scatter                           0.000370                 30   8
  104          depsum                                0.056343                         15   4
  105          fft3d_mpi                             0.062593                         15   4
  106            fftbas_plan_mpi                       0.062329                       15   5
  107              dfftw_execute                         0.002065                     45   6
  108              map_backward                          0.057663                     30   6
  109                map_gather                            0.000351                   15   7
  110                m_alltoallv_z                         0.056709                   15   7
  111                map_scatter                           0.000422                   15   7
  112        forloc                                0.022134                           15   3
  113        fornl                                 1.067610                           15   3
  114          phase                                 0.157427                        210   4
  115        fordep                                0.243524                           15   3
  116          setdij_                               0.241335                         90   4
  117        setdij_                               0.958420                          300   3
  118        set_dd_paw                            0.176945                           15   3
  119          set_rsgf_all                          0.000024                         15   4
  120        strkin                                0.038454                           15   3
  121        strelo                                0.023105                           15   3
  122        strenl                               10.367497                           15   3
  123          spher                                 6.134891                        285   4
  124          phase                                 1.487541                       1890   4
  125          proj1                                 1.101992                       1890   4
  126        fft3d_mpi                             0.408444                          165   3
  127          fftbas_plan_mpi                       0.405685                        165   4
  128            dfftw_execute                         0.024443                      495   5
  129            map_forward                           0.182115                      150   5
  130              map_gather                            0.001411                     75   6
  131              m_alltoallv_z                         0.177131                     75   6
  132              map_scatter                           0.002623                     75   6
  133            map_backward                          0.173831                      180   5
  134              map_gather                            0.002223                     90   6
  135              m_alltoallv_z                         0.168113                     90   6
  136              map_scatter                           0.002479                     90   6
  137        ggaall_grid                           0.066055                           15   3
  138        forhar                                0.039534                           30   3
  139        strehar                               0.008300                           15   3
  140        chggra                                0.072545                           15   3
  141          fft3d_mpi                             0.064700                         45   4
  142            fftbas_plan_mpi                       0.064045                       45   5
  143              dfftw_execute                         0.006954                    135   6
  144              map_forward                           0.037634                     60   6
  145                map_gather                            0.000611                   30   7
  146                m_alltoallv_z                         0.035633                   30   7
  147                map_scatter                           0.000999                   30   7
  148              map_backward                          0.012350                     30   6
  149                map_gather                            0.000337                   15   7
  150                m_alltoallv_z                         0.011434                   15   7
  151                map_scatter                           0.000406                   15   7
  152        brmix                                 0.041368                           15   3
  153          brpre                                 0.000565                         15   4
  154          setg0                                 0.002646                         15   4
  155          broyd                                 0.005928                         15   4
  156            brsav                                 0.000210                      105   5
  157            brget                                 0.000642                      280   5
 
 Flat profile
 ============
 
             routine name                   CPU           calls
 ---------------------------------------------------------------
 eddav                                 174.985496          48
 total_time                             15.636097           1
 redis_proj                             10.343532        9978
 redis_pw                                9.995735        8103
 fft3d                                   8.077324        5290
 spher                                   6.508258         300
 proj1                                   2.945483        3765
 m_alltoallv_z                           2.560693        1186
 phase                                   2.342549        2997
 orth1                                   2.213253        6339
 gemm                                    1.909080       14022
 strenl                                  1.643073          15
 setdij_                                 1.298499         450
 fornl                                   0.910183          15
 set_dd_paw                              0.878493          74
 m_sum_g                                 0.674825         420
 vhamil                                  0.610338        2337
 fftwav                                  0.589556        2953
 soft_charge                             0.575209          44
 bg_ppotrf_trtri                         0.470320         210
 work_mul_crexp                          0.464593       14022
 ggaall_grid                             0.325861          74
 fftext_mpi                              0.221869        2337
 dfftw_execute                           0.182765        3249
 fftbas_plan_mpi                         0.173477        1083
 w1_copy                                 0.171214        7011
 depsum                                  0.151789          44
 eccp                                    0.147601         672
 hamiltmu                                0.141091        2337
 force_and_stress                        0.121454          15
 overl                                   0.108109        4212
 vnlac0                                  0.096219        2337
 pw_charge                               0.090424         616
 apply_precond                           0.071202        1665
 kinhamil                                0.067221        2337
 fft3d_mpi                               0.067000        3420
 lincom_slice                            0.066059         210
 brmix                                   0.057994          44
 set_charge                              0.054831          44
 overl1                                  0.053328        2337
 orth1_nosubindex                        0.047672         210
 map_scatter                             0.039840        1186
 forhar                                  0.039534          30
 strkin                                  0.038454          15
 map_gather                              0.029069        1186
 setg0                                   0.023598          59
 strelo                                  0.023105          15
 forloc                                  0.022134          15
 setup_precond                           0.021108         672
 orthch                                  0.018602          15
 broyd                                   0.014296          44
 w1_projall                              0.013800        1665
 fftwav_mpi                              0.012461        2953
 strehar                                 0.008300          15
 chggra                                  0.007845          15
 map_forward                             0.007634        1072
 map_backward                            0.006750        1094
 lincom_distri                           0.005102         210
 orth1_distri                            0.004201         210
 truncate_high_frequency_w1              0.003206        3009
 fordep                                  0.002188          15
 proj                                    0.002121         210
 recon_slice                             0.002080         210
 brpre                                   0.001912          44
 brget                                   0.001325         591
 distri_slice                            0.001302         210
 choleski                                0.001133         210
 brsav                                   0.000827         278
 brgrid                                  0.000231           1
 set_rsgf_all                            0.000182          74
 redis_pw_over_bands                     0.000013          15
 ---------------------------------------------------------------
  summed up times    248.402122020721     
 
 Accumulative profile
 ====================
 
             routine name                   CPU           calls
 ---------------------------------------------------------------
 total_time                            248.402122           1
 eddav                                 210.857061          48
 force_and_stress                       14.485224          15
 strenl                                 10.367497          15
 redis_proj                             10.343532        9978
 redis_pw                                9.995735        8103
 fft3d                                   8.077324        5290
 hamiltmu                                7.030716        2337
 fft3d_mpi                               6.518816        3420
 spher                                   6.508258         300
 fftwav_mpi                              5.227754        2953
 fftwav                                  5.215292        2953
 kinhamil                                3.756067        2337
 fftext_mpi                              3.688846        2337
 fftbas_plan_mpi                         3.000228        1083
 proj1                                   2.945483        3765
 m_alltoallv_z                           2.560693        1186
 vnlac0                                  2.469892        2337
 phase                                   2.342549        2997
 set_charge                              2.254138          44
 orth1                                   2.213253        6339
 orthch                                  1.981752          15
 soft_charge                             1.917459          44
 gemm                                    1.909080       14022
 w1_projall                              1.724861        1665
 map_forward                             1.437053        1072
 setdij_                                 1.298499         450
 map_backward                            1.206933        1094
 fornl                                   1.067610          15
 set_dd_paw                              0.878676          74
 m_sum_g                                 0.674825         420
 vhamil                                  0.610338        2337
 choleski                                0.471454         210
 bg_ppotrf_trtri                         0.470320         210
 work_mul_crexp                          0.464593       14022
 lincom_distri                           0.417709         210
 orth1_distri                            0.383532         210
 ggaall_grid                             0.325861          74
 fordep                                  0.243524          15
 dfftw_execute                           0.182765        3249
 w1_copy                                 0.171214        7011
 depsum                                  0.151789          44
 eccp                                    0.147601         672
 proj                                    0.134552         210
 overl                                   0.108109        4212
 brmix                                   0.099952          44
 pw_charge                               0.090424         616
 chggra                                  0.072545          15
 apply_precond                           0.071202        1665
 lincom_slice                            0.066059         210
 overl1                                  0.053328        2337
 orth1_nosubindex                        0.047672         210
 map_scatter                             0.039840        1186
 forhar                                  0.039534          30
 strkin                                  0.038454          15
 map_gather                              0.029069        1186
 setg0                                   0.023598          59
 strelo                                  0.023105          15
 forloc                                  0.022134          15
 setup_precond                           0.021108         672
 broyd                                   0.016448          44
 strehar                                 0.008300          15
 truncate_high_frequency_w1              0.003206        3009
 recon_slice                             0.002080         210
 brpre                                   0.001912          44
 brget                                   0.001325         591
 distri_slice                            0.001302         210
 brsav                                   0.000827         278
 brgrid                                  0.000231           1
 set_rsgf_all                            0.000182          74
 redis_pw_over_bands                     0.000013          15
 ---------------------------------------------------------------
 
Profiling took   0.157591  0.062076  0.007666  0.007458 seconds
Profiling took   0.185639 seconds
