 vasp.5.4.4 18Apr17 (build Oct 20 2017 19:30:59) complex                        
  
 executed on      IFC17_CrayMPICH date 2019.04.21  14:17:48
 running   64 mpi-ranks, with    1 threads/rank
 distrk:  each k-point on   64 cores,    1 groups
 distr:  one band on NCORES_PER_BAND=   1 cores,   64 groups


--------------------------------------------------------------------------------------------------------


 INCAR:
 POTCAR:    PAW_PBE Zn 06Sep2000                  
 POTCAR:    PAW_PBE Te 08Apr2002                  
 POTCAR:    PAW_PBE Zn 06Sep2000                  
   VRHFIN =Zn: d10 p2                                                           
   LEXCH  = PE                                                                  
   EATOM  =  1748.8345 eV,  128.5357 Ry                                         
                                                                                
   TITEL  = PAW_PBE Zn 06Sep2000                                                
   LULTRA =        F    use ultrasoft PP ?                                      
   IUNSCR =        1    unscreen: 0-lin 1-nonlin 2-no                           
   RPACOR =    2.000    partial core radius                                     
   POMASS =   65.390; ZVAL   =   12.000    mass and valenz                      
   RCORE  =    2.300    outmost cutoff radius                                   
   RWIGS  =    2.400; RWIGS  =    1.270    wigner-seitz radius (au A)           
   ENMAX  =  276.723; ENMIN  =  207.542 eV                                      
   RCLOC  =    1.828    cutoff for local pot                                    
   LCOR   =        T    correct aug charges                                     
   LPAW   =        T    paw PP                                                  
   EAUG   =  575.892                                                            
   DEXC   =    0.000                                                            
   RMAX   =    2.347    core radius for proj-oper                               
   RAUG   =    1.300    factor for augmentation sphere                          
   RDEP   =    2.324    radius for radial grids                                 
   RDEPT  =    1.788    core radius for aug-charge                              
                                                                                
   Atomic configuration                                                         
    9 entries                                                                   
     n  l   j            E        occ.                                          
     1  0  0.50     -9524.6913   2.0000                                         
     2  0  0.50     -1158.1882   2.0000                                         
     2  1  1.50     -1003.8506   6.0000                                         
     3  0  0.50      -129.2194   2.0000                                         
     3  1  1.50       -83.3890   6.0000                                         
     3  2  2.50       -10.1410  10.0000                                         
     4  0  0.50        -5.9785   2.0000                                         
     4  1  0.50        -4.0817   0.0000                                         
     4  3  2.50        -1.3606   0.0000                                         
   Description                                                                  
     l       E           TYP  RCUT    TYP  RCUT                                 
     2    -10.1410010     23  2.300                                             
     2    -11.5015836     23  2.300                                             
     0     -5.9785163     23  2.300                                             
     0      1.1858015     23  2.300                                             
     1     -2.7211652     23  2.300                                             
     1     13.2444212     23  2.300                                             
  local pseudopotential read in
  partial core-charges read in
  partial kinetic energy density read in
  atomic valenz-charges read in
  non local Contribution for L=           2  read in
    real space projection operators read in
  non local Contribution for L=           2  read in
    real space projection operators read in
  non local Contribution for L=           0  read in
    real space projection operators read in
  non local Contribution for L=           0  read in
    real space projection operators read in
  non local Contribution for L=           1  read in
    real space projection operators read in
  non local Contribution for L=           1  read in
    real space projection operators read in
    PAW grid and wavefunctions read in
 
   number of l-projection  operators is LMAX  =           6
   number of lm-projection operators is LMMAX =          18
 
 POTCAR:    PAW_PBE Te 08Apr2002                  
   VRHFIN =Te: s2p4                                                             
   LEXCH  = PE                                                                  
   EATOM  =   223.2721 eV,   16.4100 Ry                                         
                                                                                
   TITEL  = PAW_PBE Te 08Apr2002                                                
   LULTRA =        F    use ultrasoft PP ?                                      
   IUNSCR =        1    unscreen: 0-lin 1-nonlin 2-no                           
   RPACOR =    2.200    partial core radius                                     
   POMASS =  127.600; ZVAL   =    6.000    mass and valenz                      
   RCORE  =    2.300    outmost cutoff radius                                   
   RWIGS  =    2.900; RWIGS  =    1.535    wigner-seitz radius (au A)           
   ENMAX  =  174.982; ENMIN  =  131.236 eV                                      
   ICORE  =        3    local potential                                         
   LCOR   =        T    correct aug charges                                     
   LPAW   =        T    paw PP                                                  
   EAUG   =  368.792                                                            
   DEXC   =    0.000                                                            
   RMAX   =    2.345    core radius for proj-oper                               
   RAUG   =    1.300    factor for augmentation sphere                          
   RDEP   =    2.397    radius for radial grids                                 
   RDEPT  =    2.174    core radius for aug-charge                              
                                                                                
   Atomic configuration                                                         
   13 entries                                                                   
     n  l   j            E        occ.                                          
     1  0  0.50    -31621.2075   2.0000                                         
     2  0  0.50     -4848.7941   2.0000                                         
     2  1  1.50     -4352.1960   6.0000                                         
     3  0  0.50      -964.9612   2.0000                                         
     3  1  1.50      -803.6179   6.0000                                         
     3  2  2.50      -559.8710  10.0000                                         
     4  0  0.50      -164.3522   2.0000                                         
     4  1  1.50      -114.3756   6.0000                                         
     4  2  2.50       -41.6483  10.0000                                         
     5  0  0.50       -15.1072   2.0000                                         
     5  1  0.50        -5.9526   4.0000                                         
     5  2  1.50        -5.4423   0.0000                                         
     4  3  2.50        -5.4423   0.0000                                         
   Description                                                                  
     l       E           TYP  RCUT    TYP  RCUT                                 
     0    -15.1072389     23  2.300                                             
     0    -16.4678215     23  2.300                                             
     1     -5.9526306     23  2.300                                             
     1     -2.4873968     23  2.300                                             
     2     -5.4423304     23  2.300                                             
     3     -1.3605826     23  2.300                                             
  local pseudopotential read in
  partial core-charges read in
  partial kinetic energy density read in
  atomic valenz-charges read in
  non local Contribution for L=           0  read in
    real space projection operators read in
  non local Contribution for L=           0  read in
    real space projection operators read in
  non local Contribution for L=           1  read in
    real space projection operators read in
  non local Contribution for L=           1  read in
    real space projection operators read in
  non local Contribution for L=           2  read in
    real space projection operators read in
    PAW grid and wavefunctions read in
 
   number of l-projection  operators is LMAX  =           5
   number of lm-projection operators is LMMAX =          13
 
  PAW_PBE Zn 06Sep2000                  :
 energy of atom  1       EATOM=-1748.8345
 kinetic energy error for atom=    0.0107 (will be added to EATOM!!)
  PAW_PBE Te 08Apr2002                  :
 energy of atom  2       EATOM= -223.2721
 kinetic energy error for atom=    0.0011 (will be added to EATOM!!)
 
 
 POSCAR: Zn3 Te3                                 
  positions in direct lattice
  No initial velocities read in
 exchange correlation table for  LEXCH =        8
   RHO(1)=    0.500       N(1)  =     2000
   RHO(2)=  100.500       N(2)  =     4000
 


--------------------------------------------------------------------------------------------------------


 ion  position               nearest neighbor table
   1  0.361  0.021  0.026-   4 2.67   5 2.68   4 2.68   4 2.69
   2  0.661  0.639  0.693-   5 2.67   6 2.68   5 2.68   5 2.69
   3  0.979  0.339  0.360-   6 2.67   4 2.68   6 2.68   6 2.69
   4  0.024  0.353  0.110-   1 2.67   3 2.68   1 2.68   1 2.69
   5  0.329  0.976  0.777-   2 2.67   1 2.68   2 2.68   2 2.69
   6  0.647  0.671  0.444-   3 2.67   2 2.68   3 2.68   3 2.69
 
  LATTYP: Found a hexagonal cell.
 ALAT       =     4.3729999214
 C/A-ratio  =     2.4479762617
  
  Lattice vectors:
  
 A1 = (   4.3730000000,   0.0000000000,   0.0000000000)
 A2 = (  -2.1865000000,   3.7871290000,   0.0000000000)
 A3 = (   0.0000000000,   0.0000000000,  10.7050000000)


Analysis of symmetry for initial positions (statically):
=====================================================================
 Subroutine PRICEL returns:
 Original cell was already a primitive cell.
 

 Routine SETGRP: Setting up the symmetry group for a 
 hexagonal supercell.


 Subroutine GETGRP returns: Found  1 space group operations
 (whereof  1 operations were pure point group operations)
 out of a pool of 24 trial point group operations.


The static configuration has the point symmetry C_1 .


Analysis of symmetry for dynamics (positions and initial velocities):
=====================================================================
 Subroutine PRICEL returns:
 Original cell was already a primitive cell.
 

 Routine SETGRP: Setting up the symmetry group for a 
 hexagonal supercell.


 Subroutine GETGRP returns: Found  1 space group operations
 (whereof  1 operations were pure point group operations)
 out of a pool of 24 trial point group operations.


The dynamic configuration has the point symmetry C_1 .


 Subroutine INISYM returns: Found  1 space group operations
 (whereof  1 operations are pure point group operations),
 and found     1 'primitive' translations

 
 
 KPOINTS: Automatic kpoint scheme                 

Automatic generation of k-mesh.
Space group operators:
 irot       det(A)        alpha          n_x          n_y          n_z        tau_x        tau_y        tau_z
    1     1.000000     0.000000     1.000000     0.000000     0.000000     0.000000     0.000000     0.000000
 
 Subroutine IBZKPT returns following result:
 ===========================================
 
 Found     63 irreducible k-points:
 
 Following reciprocal coordinates:
            Coordinates               Weight
  0.000000  0.000000  0.000000      1.000000
  0.200000 -0.000000  0.000000      2.000000
  0.400000  0.000000  0.000000      2.000000
  0.000000  0.200000  0.000000      2.000000
  0.200000  0.200000  0.000000      2.000000
  0.400000  0.200000  0.000000      2.000000
 -0.400000  0.200000  0.000000      2.000000
 -0.200000  0.200000  0.000000      2.000000
  0.000000  0.400000  0.000000      2.000000
  0.200000  0.400000  0.000000      2.000000
  0.400000  0.400000  0.000000      2.000000
 -0.400000  0.400000  0.000000      2.000000
 -0.200000  0.400000  0.000000      2.000000
  0.000000  0.000000  0.200000      2.000000
  0.200000 -0.000000  0.200000      2.000000
  0.400000  0.000000  0.200000      2.000000
 -0.400000 -0.000000  0.200000      2.000000
 -0.200000  0.000000  0.200000      2.000000
  0.000000  0.200000  0.200000      2.000000
  0.200000  0.200000  0.200000      2.000000
  0.400000  0.200000  0.200000      2.000000
 -0.400000  0.200000  0.200000      2.000000
 -0.200000  0.200000  0.200000      2.000000
  0.000000  0.400000  0.200000      2.000000
  0.200000  0.400000  0.200000      2.000000
  0.400000  0.400000  0.200000      2.000000
 -0.400000  0.400000  0.200000      2.000000
 -0.200000  0.400000  0.200000      2.000000
  0.000000 -0.400000  0.200000      2.000000
  0.200000 -0.400000  0.200000      2.000000
  0.400000 -0.400000  0.200000      2.000000
 -0.400000 -0.400000  0.200000      2.000000
 -0.200000 -0.400000  0.200000      2.000000
  0.000000 -0.200000  0.200000      2.000000
  0.200000 -0.200000  0.200000      2.000000
  0.400000 -0.200000  0.200000      2.000000
 -0.400000 -0.200000  0.200000      2.000000
 -0.200000 -0.200000  0.200000      2.000000
  0.000000  0.000000  0.400000      2.000000
  0.200000 -0.000000  0.400000      2.000000
  0.400000  0.000000  0.400000      2.000000
 -0.400000 -0.000000  0.400000      2.000000
 -0.200000  0.000000  0.400000      2.000000
  0.000000  0.200000  0.400000      2.000000
  0.200000  0.200000  0.400000      2.000000
  0.400000  0.200000  0.400000      2.000000
 -0.400000  0.200000  0.400000      2.000000
 -0.200000  0.200000  0.400000      2.000000
  0.000000  0.400000  0.400000      2.000000
  0.200000  0.400000  0.400000      2.000000
  0.400000  0.400000  0.400000      2.000000
 -0.400000  0.400000  0.400000      2.000000
 -0.200000  0.400000  0.400000      2.000000
  0.000000 -0.400000  0.400000      2.000000
  0.200000 -0.400000  0.400000      2.000000
  0.400000 -0.400000  0.400000      2.000000
 -0.400000 -0.400000  0.400000      2.000000
 -0.200000 -0.400000  0.400000      2.000000
  0.000000 -0.200000  0.400000      2.000000
  0.200000 -0.200000  0.400000      2.000000
  0.400000 -0.200000  0.400000      2.000000
 -0.400000 -0.200000  0.400000      2.000000
 -0.200000 -0.200000  0.400000      2.000000
 
 Following cartesian coordinates:
            Coordinates               Weight
  0.000000  0.000000  0.000000      1.000000
  0.045735  0.026405  0.000000      2.000000
  0.091470  0.052810  0.000000      2.000000
  0.000000  0.052810  0.000000      2.000000
  0.045735  0.079216  0.000000      2.000000
  0.091470  0.105621  0.000000      2.000000
 -0.091470  0.000000  0.000000      2.000000
 -0.045735  0.026405  0.000000      2.000000
  0.000000  0.105621  0.000000      2.000000
  0.045735  0.132026  0.000000      2.000000
  0.091470  0.158431  0.000000      2.000000
 -0.091470  0.052810  0.000000      2.000000
 -0.045735  0.079216  0.000000      2.000000
  0.000000  0.000000  0.018683      2.000000
  0.045735  0.026405  0.018683      2.000000
  0.091470  0.052810  0.018683      2.000000
 -0.091470 -0.052810  0.018683      2.000000
 -0.045735 -0.026405  0.018683      2.000000
  0.000000  0.052810  0.018683      2.000000
  0.045735  0.079216  0.018683      2.000000
  0.091470  0.105621  0.018683      2.000000
 -0.091470  0.000000  0.018683      2.000000
 -0.045735  0.026405  0.018683      2.000000
  0.000000  0.105621  0.018683      2.000000
  0.045735  0.132026  0.018683      2.000000
  0.091470  0.158431  0.018683      2.000000
 -0.091470  0.052810  0.018683      2.000000
 -0.045735  0.079216  0.018683      2.000000
  0.000000 -0.105621  0.018683      2.000000
  0.045735 -0.079216  0.018683      2.000000
  0.091470 -0.052810  0.018683      2.000000
 -0.091470 -0.158431  0.018683      2.000000
 -0.045735 -0.132026  0.018683      2.000000
  0.000000 -0.052810  0.018683      2.000000
  0.045735 -0.026405  0.018683      2.000000
  0.091470 -0.000000  0.018683      2.000000
 -0.091470 -0.105621  0.018683      2.000000
 -0.045735 -0.079216  0.018683      2.000000
  0.000000  0.000000  0.037366      2.000000
  0.045735  0.026405  0.037366      2.000000
  0.091470  0.052810  0.037366      2.000000
 -0.091470 -0.052810  0.037366      2.000000
 -0.045735 -0.026405  0.037366      2.000000
  0.000000  0.052810  0.037366      2.000000
  0.045735  0.079216  0.037366      2.000000
  0.091470  0.105621  0.037366      2.000000
 -0.091470  0.000000  0.037366      2.000000
 -0.045735  0.026405  0.037366      2.000000
  0.000000  0.105621  0.037366      2.000000
  0.045735  0.132026  0.037366      2.000000
  0.091470  0.158431  0.037366      2.000000
 -0.091470  0.052810  0.037366      2.000000
 -0.045735  0.079216  0.037366      2.000000
  0.000000 -0.105621  0.037366      2.000000
  0.045735 -0.079216  0.037366      2.000000
  0.091470 -0.052810  0.037366      2.000000
 -0.091470 -0.158431  0.037366      2.000000
 -0.045735 -0.132026  0.037366      2.000000
  0.000000 -0.052810  0.037366      2.000000
  0.045735 -0.026405  0.037366      2.000000
  0.091470 -0.000000  0.037366      2.000000
 -0.091470 -0.105621  0.037366      2.000000
 -0.045735 -0.079216  0.037366      2.000000
 

 ----------------------------------------------------------------------------- 
|                                                                             |
|           W    W    AA    RRRRR   N    N  II  N    N   GGGG   !!!           |
|           W    W   A  A   R    R  NN   N  II  NN   N  G    G  !!!           |
|           W    W  A    A  R    R  N N  N  II  N N  N  G       !!!           |
|           W WW W  AAAAAA  RRRRR   N  N N  II  N  N N  G  GGG   !            |
|           WW  WW  A    A  R   R   N   NN  II  N   NN  G    G                |
|           W    W  A    A  R    R  N    N  II  N    N   GGGG   !!!           |
|                                                                             |
|      The number of bands has been changed from the values supplied          |
|      in the INCAR file. This is a result of running the parallel version.   |
|      The orbitals not found in the WAVECAR file will be initialized with    |
|      random numbers, which is usually adequate. For correlated              |
|      calculations, however, you should redo the groundstate calculation.    |
|      I found NBANDS    =        8  now  NBANDS  =      64                   |
|                                                                             |
 ----------------------------------------------------------------------------- 



--------------------------------------------------------------------------------------------------------




 Dimension of arrays:
   k-points           NKPTS =     63   k-points in BZ     NKDIM =     63   number of bands    NBANDS=     64
   number of dos      NEDOS =    301   number of ions     NIONS =      6
   non local maximal  LDIM  =      6   non local SUM 2l+1 LMDIM =     18
   total plane-waves  NPLWV =  31104
   max r-space proj   IRMAX =      1   max aug-charges    IRDMAX=  10403
   dimension x,y,z NGX =    24 NGY =   24 NGZ =   54
   dimension x,y,z NGXF=    48 NGYF=   48 NGZF=  108
   support grid    NGXF=    48 NGYF=   48 NGZF=  108
   ions per type =               3   3
   NGX,Y,Z   is equivalent  to a cutoff of   9.12,  9.12,  8.39 a.u.
   NGXF,Y,Z  is equivalent  to a cutoff of  18.25, 18.25, 16.77 a.u.

 SYSTEM =  unknown system                          
 POSCAR =  Zn3 Te3                                 

 Startparameter for this run:
   NWRITE =      2    write-flag & timer
   PREC   = normal    normal or accurate (medium, high low for compatibility)
   ISTART =      0    job   : 0-new  1-cont  2-samecut
   ICHARG =      2    charge: 1-file 2-atom 10-const
   ISPIN  =      1    spin polarized calculation?
   LNONCOLLINEAR =      F non collinear calculations
   LSORBIT =      F    spin-orbit coupling
   INIWAV =      1    electr: 0-lowe 1-rand  2-diag
   LASPH  =      F    aspherical Exc in radial PAW
   METAGGA=      F    non-selfconsistent MetaGGA calc.

 Electronic Relaxation 1
   ENCUT  =  400.0 eV  29.40 Ry    5.42 a.u.   7.13  7.13 17.46*2*pi/ulx,y,z
   ENINI  =  400.0     initial cutoff
   ENAUG  =  575.9 eV  augmentation charge cutoff
   NELM   =     60;   NELMIN=  2; NELMDL= -5     # of ELM steps 
   EDIFF  = 0.4E-03   stopping-criterion for ELM
   LREAL  =      F    real-space projection
   NLSPLINE    = F    spline interpolate recip. space projectors
   LCOMPAT=      F    compatible to vasp.4.4
   GGA_COMPAT  = T    GGA compatible to vasp.4.4-vasp.4.6
   LMAXPAW     = -100 max onsite density
   LMAXMIX     =    2 max onsite mixed and CHGCAR
   VOSKOWN=      0    Vosko Wilk Nusair interpolation
   ROPT   =    0.00000   0.00000
 Ionic relaxation
   EDIFFG = -.1E-01   stopping-criterion for IOM
   NSW    =     15    number of steps for IOM
   NBLOCK =      1;   KBLOCK =     15    inner block; outer block 
   IBRION =      1    ionic relax: 0-MD 1-quasi-New 2-CG
   NFREE  =      0    steps in history (QN), initial steepest desc. (CG)
   ISIF   =      3    stress and relaxation
   IWAVPR =     11    prediction:  0-non 1-charg 2-wave 3-comb
   ISYM   =      2    0-nonsym 1-usesym 2-fastsym
   LCORR  =      T    Harris-Foulkes like correction to forces

   POTIM  = 0.5000    time-step for ionic-motion
   TEIN   =    0.0    initial temperature
   TEBEG  =    0.0;   TEEND  =   0.0 temperature during run
   SMASS  =  -3.00    Nose mass-parameter (am)
   estimated Nose-frequenzy (Omega)   =  0.10E-29 period in steps =****** mass=  -0.437E-27a.u.
   SCALEE = 1.0000    scale energy and forces
   NPACO  =    256;   APACO  = 16.0  distance and # of slots for P.C.
   PSTRESS=    0.0 pullay stress

  Mass of Ions in am
   POMASS =  65.39127.60
  Ionic Valenz
   ZVAL   =  12.00  6.00
  Atomic Wigner-Seitz radii
   RWIGS  =  -1.00 -1.00
  virtual crystal weights 
   VCA    =   1.00  1.00
   NELECT =      54.0000    total number of electrons
   NUPDOWN=      -1.0000    fix difference up-down

 DOS related values:
   EMIN   =  10.00;   EMAX   =-10.00  energy-range for DOS
   EFERMI =   0.00
   ISMEAR =     0;   SIGMA  =   0.20  broadening in eV -4-tet -1-fermi 0-gaus

 Electronic relaxation 2 (details)
   IALGO  =     38    algorithm
   LDIAG  =      T    sub-space diagonalisation (order eigenvalues)
   LSUBROT=      F    optimize rotation matrix (better conditioning)
   TURBO    =      0    0=normal 1=particle mesh
   IRESTART =      0    0=no restart 2=restart with 2 vectors
   NREBOOT  =      0    no. of reboots
   NMIN     =      0    reboot dimension
   EREF     =   0.00    reference energy to select bands
   IMIX   =      4    mixing-type and parameters
     AMIX     =   0.40;   BMIX     =  1.00
     AMIX_MAG =   1.60;   BMIX_MAG =  1.00
     AMIN     =   0.10
     WC   =   100.;   INIMIX=   1;  MIXPRE=   1;  MAXMIX= -45

 Intra band minimization:
   WEIMIN = 0.0010     energy-eigenvalue tresh-hold
   EBREAK =  0.16E-05  absolut break condition
   DEPER  =   0.30     relativ break condition  

   TIME   =   0.40     timestep for ELM

  volume/ion in A,a.u.               =      29.55       199.40
  Fermi-wavevector in a.u.,A,eV,Ry     =   1.101490  2.081515 16.507688  1.213281
  Thomas-Fermi vector in A             =   2.237918
 
 Write flags
   LWAVE        =      T    write WAVECAR
   LDOWNSAMPLE  =      F    k-point downsampling of WAVECAR
   LCHARG       =      T    write CHGCAR
   LVTOT        =      F    write LOCPOT, total local potential
   LVHAR        =      F    write LOCPOT, Hartree potential only
   LELF         =      F    write electronic localiz. function (ELF)
   LORBIT       =      0    0 simple, 1 ext, 2 COOP (PROOUT), +10 PAW based schemes


 Dipole corrections
   LMONO  =      F    monopole corrections only (constant potential shift)
   LDIPOL =      F    correct potential (dipole corrections)
   IDIPOL =      0    1-x, 2-y, 3-z, 4-all directions 
   EPSILON=  1.0000000 bulk dielectric constant

 Exchange correlation treatment:
   GGA     =    --    GGA type
   LEXCH   =     8    internal setting for exchange type
   VOSKOWN=      0    Vosko Wilk Nusair interpolation
   LHFCALC =     F    Hartree Fock is set to
   LHFONE  =     F    Hartree Fock one center treatment
   AEXX    =    0.0000 exact exchange contribution

 Linear response parameters
   LEPSILON=     F    determine dielectric tensor
   LRPA    =     F    only Hartree local field effects (RPA)
   LNABLA  =     F    use nabla operator in PAW spheres
   LVEL    =     F    velocity operator in full k-point grid
   LINTERFAST=   F  fast interpolation
   KINTER  =     0    interpolate to denser k-point grid
   CSHIFT  =0.1000    complex shift for real part using Kramers Kronig
   OMEGAMAX=  -1.0    maximum frequency
   DEG_THRESHOLD= 0.2000000E-02 threshold for treating states as degnerate
   RTIME   =   -0.100 relaxation time in fs
  (WPLASMAI=    0.000 imaginary part of plasma frequency in eV, 0.658/RTIME)
   DFIELD  = 0.0000000 0.0000000 0.0000000 field for delta impulse in time
 
 Orbital magnetization related:
   ORBITALMAG=     F  switch on orbital magnetization
   LCHIMAG   =     F  perturbation theory with respect to B field
   DQ        =  0.001000  dq finite difference perturbation B field
   LLRAUG    =     F  two centre corrections for induced B field



--------------------------------------------------------------------------------------------------------


 quasi-Newton-method for relaxation of ions
 charge density and potential will be updated during run
 non-spin polarized calculation
 Variant of blocked Davidson
 Davidson routine will perform the subspace rotation
 perform sub-space diagonalisation
    after iterative eigenvector-optimisation
 modified Broyden-mixing scheme, WC =      100.0
 initial mixing is a Kerker type mixing with AMIX =  0.4000 and BMIX =      1.0000
 Hartree-type preconditioning will be used
 using additional bands           37
 reciprocal scheme for non local part
 use partial core corrections
 calculate Harris-corrections to forces 
   (improved forces if not selfconsistent)
 use gradient corrections 
 use of overlap-Matrix (Vanderbilt PP)
 Gauss-broadening in eV      SIGMA  =   0.20


--------------------------------------------------------------------------------------------------------


  energy-cutoff  :      400.00
  volume of cell :      177.29
      direct lattice vectors                 reciprocal lattice vectors
     4.373000000  0.000000000  0.000000000     0.228675966  0.132026134  0.000000000
    -2.186500000  3.787129000  0.000000000     0.000000000  0.264052268  0.000000000
     0.000000000  0.000000000 10.705000000     0.000000000  0.000000000  0.093414292

  length of vectors
     4.373000000  4.372999921 10.705000000     0.264052263  0.264052268  0.093414292


 
 k-points in units of 2pi/SCALE and weight: Automatic kpoint scheme                 
   0.00000000  0.00000000  0.00000000       0.008
   0.04573519  0.02640523  0.00000000       0.016
   0.09147039  0.05281045  0.00000000       0.016
   0.00000000  0.05281045  0.00000000       0.016
   0.04573519  0.07921568  0.00000000       0.016
   0.09147039  0.10562091  0.00000000       0.016
  -0.09147039  0.00000000  0.00000000       0.016
  -0.04573519  0.02640523  0.00000000       0.016
   0.00000000  0.10562091  0.00000000       0.016
   0.04573519  0.13202613  0.00000000       0.016
   0.09147039  0.15843136  0.00000000       0.016
  -0.09147039  0.05281045  0.00000000       0.016
  -0.04573519  0.07921568  0.00000000       0.016
   0.00000000  0.00000000  0.01868286       0.016
   0.04573519  0.02640523  0.01868286       0.016
   0.09147039  0.05281045  0.01868286       0.016
  -0.09147039 -0.05281045  0.01868286       0.016
  -0.04573519 -0.02640523  0.01868286       0.016
   0.00000000  0.05281045  0.01868286       0.016
   0.04573519  0.07921568  0.01868286       0.016
   0.09147039  0.10562091  0.01868286       0.016
  -0.09147039  0.00000000  0.01868286       0.016
  -0.04573519  0.02640523  0.01868286       0.016
   0.00000000  0.10562091  0.01868286       0.016
   0.04573519  0.13202613  0.01868286       0.016
   0.09147039  0.15843136  0.01868286       0.016
  -0.09147039  0.05281045  0.01868286       0.016
  -0.04573519  0.07921568  0.01868286       0.016
   0.00000000 -0.10562091  0.01868286       0.016
   0.04573519 -0.07921568  0.01868286       0.016
   0.09147039 -0.05281045  0.01868286       0.016
  -0.09147039 -0.15843136  0.01868286       0.016
  -0.04573519 -0.13202613  0.01868286       0.016
   0.00000000 -0.05281045  0.01868286       0.016
   0.04573519 -0.02640523  0.01868286       0.016
   0.09147039 -0.00000000  0.01868286       0.016
  -0.09147039 -0.10562091  0.01868286       0.016
  -0.04573519 -0.07921568  0.01868286       0.016
   0.00000000  0.00000000  0.03736572       0.016
   0.04573519  0.02640523  0.03736572       0.016
   0.09147039  0.05281045  0.03736572       0.016
  -0.09147039 -0.05281045  0.03736572       0.016
  -0.04573519 -0.02640523  0.03736572       0.016
   0.00000000  0.05281045  0.03736572       0.016
   0.04573519  0.07921568  0.03736572       0.016
   0.09147039  0.10562091  0.03736572       0.016
  -0.09147039  0.00000000  0.03736572       0.016
  -0.04573519  0.02640523  0.03736572       0.016
   0.00000000  0.10562091  0.03736572       0.016
   0.04573519  0.13202613  0.03736572       0.016
   0.09147039  0.15843136  0.03736572       0.016
  -0.09147039  0.05281045  0.03736572       0.016
  -0.04573519  0.07921568  0.03736572       0.016
   0.00000000 -0.10562091  0.03736572       0.016
   0.04573519 -0.07921568  0.03736572       0.016
   0.09147039 -0.05281045  0.03736572       0.016
  -0.09147039 -0.15843136  0.03736572       0.016
  -0.04573519 -0.13202613  0.03736572       0.016
   0.00000000 -0.05281045  0.03736572       0.016
   0.04573519 -0.02640523  0.03736572       0.016
   0.09147039 -0.00000000  0.03736572       0.016
  -0.09147039 -0.10562091  0.03736572       0.016
  -0.04573519 -0.07921568  0.03736572       0.016
 
 k-points in reciprocal lattice and weights: Automatic kpoint scheme                 
   0.00000000  0.00000000  0.00000000       0.008
   0.20000000 -0.00000000  0.00000000       0.016
   0.40000000  0.00000000  0.00000000       0.016
   0.00000000  0.20000000  0.00000000       0.016
   0.20000000  0.20000000  0.00000000       0.016
   0.40000000  0.20000000  0.00000000       0.016
  -0.40000000  0.20000000  0.00000000       0.016
  -0.20000000  0.20000000  0.00000000       0.016
   0.00000000  0.40000000  0.00000000       0.016
   0.20000000  0.40000000  0.00000000       0.016
   0.40000000  0.40000000  0.00000000       0.016
  -0.40000000  0.40000000  0.00000000       0.016
  -0.20000000  0.40000000  0.00000000       0.016
   0.00000000  0.00000000  0.20000000       0.016
   0.20000000 -0.00000000  0.20000000       0.016
   0.40000000  0.00000000  0.20000000       0.016
  -0.40000000 -0.00000000  0.20000000       0.016
  -0.20000000  0.00000000  0.20000000       0.016
   0.00000000  0.20000000  0.20000000       0.016
   0.20000000  0.20000000  0.20000000       0.016
   0.40000000  0.20000000  0.20000000       0.016
  -0.40000000  0.20000000  0.20000000       0.016
  -0.20000000  0.20000000  0.20000000       0.016
   0.00000000  0.40000000  0.20000000       0.016
   0.20000000  0.40000000  0.20000000       0.016
   0.40000000  0.40000000  0.20000000       0.016
  -0.40000000  0.40000000  0.20000000       0.016
  -0.20000000  0.40000000  0.20000000       0.016
   0.00000000 -0.40000000  0.20000000       0.016
   0.20000000 -0.40000000  0.20000000       0.016
   0.40000000 -0.40000000  0.20000000       0.016
  -0.40000000 -0.40000000  0.20000000       0.016
  -0.20000000 -0.40000000  0.20000000       0.016
   0.00000000 -0.20000000  0.20000000       0.016
   0.20000000 -0.20000000  0.20000000       0.016
   0.40000000 -0.20000000  0.20000000       0.016
  -0.40000000 -0.20000000  0.20000000       0.016
  -0.20000000 -0.20000000  0.20000000       0.016
   0.00000000  0.00000000  0.40000000       0.016
   0.20000000 -0.00000000  0.40000000       0.016
   0.40000000  0.00000000  0.40000000       0.016
  -0.40000000 -0.00000000  0.40000000       0.016
  -0.20000000  0.00000000  0.40000000       0.016
   0.00000000  0.20000000  0.40000000       0.016
   0.20000000  0.20000000  0.40000000       0.016
   0.40000000  0.20000000  0.40000000       0.016
  -0.40000000  0.20000000  0.40000000       0.016
  -0.20000000  0.20000000  0.40000000       0.016
   0.00000000  0.40000000  0.40000000       0.016
   0.20000000  0.40000000  0.40000000       0.016
   0.40000000  0.40000000  0.40000000       0.016
  -0.40000000  0.40000000  0.40000000       0.016
  -0.20000000  0.40000000  0.40000000       0.016
   0.00000000 -0.40000000  0.40000000       0.016
   0.20000000 -0.40000000  0.40000000       0.016
   0.40000000 -0.40000000  0.40000000       0.016
  -0.40000000 -0.40000000  0.40000000       0.016
  -0.20000000 -0.40000000  0.40000000       0.016
   0.00000000 -0.20000000  0.40000000       0.016
   0.20000000 -0.20000000  0.40000000       0.016
   0.40000000 -0.20000000  0.40000000       0.016
  -0.40000000 -0.20000000  0.40000000       0.016
  -0.20000000 -0.20000000  0.40000000       0.016
 
 position of ions in fractional coordinates (direct lattice) 
   0.36060000  0.02120000  0.02650000
   0.66060000  0.63940000  0.69320000
   0.97880000  0.33940000  0.35980000
   0.02370000  0.35300000  0.11020000
   0.32930000  0.97630000  0.77680000
   0.64700000  0.67070000  0.44350000
 
 position of ions in cartesian coordinates  (Angst):
   1.53055000  0.08028713  0.28368250
   1.49075570  2.42149028  7.42070600
   3.53819430  1.28535158  3.85165900
  -0.66819440  1.33685654  1.17969100
  -0.69465105  3.69737404  8.31564400
   1.36284545  2.54002742  4.74766750
 


--------------------------------------------------------------------------------------------------------


 k-point  1 :   0.0000 0.0000 0.0000  plane waves:    3245
 k-point  2 :   0.2000-0.0000 0.0000  plane waves:    3212
 k-point  3 :   0.4000 0.0000 0.0000  plane waves:    3232
 k-point  4 :   0.0000 0.2000 0.0000  plane waves:    3212
 k-point  5 :   0.2000 0.2000 0.0000  plane waves:    3219
 k-point  6 :   0.4000 0.2000 0.0000  plane waves:    3233
 k-point  7 :  -0.4000 0.2000 0.0000  plane waves:    3219
 k-point  8 :  -0.2000 0.2000 0.0000  plane waves:    3212
 k-point  9 :   0.0000 0.4000 0.0000  plane waves:    3232
 k-point 10 :   0.2000 0.4000 0.0000  plane waves:    3233
 k-point 11 :   0.4000 0.4000 0.0000  plane waves:    3233
 k-point 12 :  -0.4000 0.4000 0.0000  plane waves:    3232
 k-point 13 :  -0.2000 0.4000 0.0000  plane waves:    3219
 k-point 14 :   0.0000 0.0000 0.2000  plane waves:    3203
 k-point 15 :   0.2000-0.0000 0.2000  plane waves:    3212
 k-point 16 :   0.4000 0.0000 0.2000  plane waves:    3233
 k-point 17 :  -0.4000-0.0000 0.2000  plane waves:    3233
 k-point 18 :  -0.2000 0.0000 0.2000  plane waves:    3212
 k-point 19 :   0.0000 0.2000 0.2000  plane waves:    3212
 k-point 20 :   0.2000 0.2000 0.2000  plane waves:    3222
 k-point 21 :   0.4000 0.2000 0.2000  plane waves:    3238
 k-point 22 :  -0.4000 0.2000 0.2000  plane waves:    3222
 k-point 23 :  -0.2000 0.2000 0.2000  plane waves:    3212
 k-point 24 :   0.0000 0.4000 0.2000  plane waves:    3233
 k-point 25 :   0.2000 0.4000 0.2000  plane waves:    3238
 k-point 26 :   0.4000 0.4000 0.2000  plane waves:    3238
 k-point 27 :  -0.4000 0.4000 0.2000  plane waves:    3233
 k-point 28 :  -0.2000 0.4000 0.2000  plane waves:    3222
 k-point 29 :   0.0000-0.4000 0.2000  plane waves:    3233
 k-point 30 :   0.2000-0.4000 0.2000  plane waves:    3222
 k-point 31 :   0.4000-0.4000 0.2000  plane waves:    3233
 k-point 32 :  -0.4000-0.4000 0.2000  plane waves:    3238
 k-point 33 :  -0.2000-0.4000 0.2000  plane waves:    3238
 k-point 34 :   0.0000-0.2000 0.2000  plane waves:    3212
 k-point 35 :   0.2000-0.2000 0.2000  plane waves:    3212
 k-point 36 :   0.4000-0.2000 0.2000  plane waves:    3222
 k-point 37 :  -0.4000-0.2000 0.2000  plane waves:    3238
 k-point 38 :  -0.2000-0.2000 0.2000  plane waves:    3222
 k-point 39 :   0.0000 0.0000 0.4000  plane waves:    3197
 k-point 40 :   0.2000-0.0000 0.4000  plane waves:    3225
 k-point 41 :   0.4000 0.0000 0.4000  plane waves:    3209
 k-point 42 :  -0.4000-0.0000 0.4000  plane waves:    3209
 k-point 43 :  -0.2000 0.0000 0.4000  plane waves:    3225
 k-point 44 :   0.0000 0.2000 0.4000  plane waves:    3225
 k-point 45 :   0.2000 0.2000 0.4000  plane waves:    3220
 k-point 46 :   0.4000 0.2000 0.4000  plane waves:    3232
 k-point 47 :  -0.4000 0.2000 0.4000  plane waves:    3220
 k-point 48 :  -0.2000 0.2000 0.4000  plane waves:    3225
 k-point 49 :   0.0000 0.4000 0.4000  plane waves:    3209
 k-point 50 :   0.2000 0.4000 0.4000  plane waves:    3232
 k-point 51 :   0.4000 0.4000 0.4000  plane waves:    3232
 k-point 52 :  -0.4000 0.4000 0.4000  plane waves:    3209
 k-point 53 :  -0.2000 0.4000 0.4000  plane waves:    3220
 k-point 54 :   0.0000-0.4000 0.4000  plane waves:    3209
 k-point 55 :   0.2000-0.4000 0.4000  plane waves:    3220
 k-point 56 :   0.4000-0.4000 0.4000  plane waves:    3209
 k-point 57 :  -0.4000-0.4000 0.4000  plane waves:    3232
 k-point 58 :  -0.2000-0.4000 0.4000  plane waves:    3232
 k-point 59 :   0.0000-0.2000 0.4000  plane waves:    3225
 k-point 60 :   0.2000-0.2000 0.4000  plane waves:    3225
 k-point 61 :   0.4000-0.2000 0.4000  plane waves:    3220
 k-point 62 :  -0.4000-0.2000 0.4000  plane waves:    3232
 k-point 63 :  -0.2000-0.2000 0.4000  plane waves:    3220

 maximum and minimum number of plane-waves per node :      3245     3197

 maximum number of plane-waves:      3245
 maximum index in each direction: 
   IXMAX=    7   IYMAX=    7   IZMAX=   17
   IXMIN=   -7   IYMIN=   -7   IZMIN=  -17


 serial   3D FFT for wavefunctions
 parallel 3D FFT for charge:
    minimum data exchange during FFTs selected (reduces bandwidth)


 total amount of memory used by VASP MPI-rank0    94904. kBytes
=======================================================================

   base      :      30000. kBytes
   nonl-proj :      59535. kBytes
   fftplans  :        310. kBytes
   grid      :       1547. kBytes
   one-center:         93. kBytes
   wavefun   :       3419. kBytes
 
     INWAV:  cpu time    0.0002: real time    0.0014
 Broyden mixing: mesh for mixing (old mesh)
   NGX = 15   NGY = 15   NGZ = 35
  (NGX  = 48   NGY  = 48   NGZ  =108)
  gives a total of   7875 points

 initial charge density was supplied:
 charge density of overlapping atoms calculated
 number of electron      54.0000000 magnetization 
 keeping initial charge density in first step


--------------------------------------------------------------------------------------------------------


 Maximum index for augmentation-charges          488 (set IRDMAX)


--------------------------------------------------------------------------------------------------------


 First call to EWALD:  gamma=   0.316
 Maximum number of real-space cells 4x 4x 2
 Maximum number of reciprocal cells 2x 2x 5

    FEWALD:  cpu time    0.0177: real time    0.0178


--------------------------------------- Iteration      1(   1)  ---------------------------------------


    POTLOK:  cpu time    0.0756: real time    0.0890
    SETDIJ:  cpu time    0.0121: real time    0.0123
     EDDAV:  cpu time   12.9440: real time   13.1359
       DOS:  cpu time    0.0061: real time    0.0066
    --------------------------------------------
      LOOP:  cpu time   13.0379: real time   13.2440

 eigenvalue-minimisations  :  8064
 total energy-change (2. order) : 0.6585098E+02  (-0.2340201E+04)
 number of electron      54.0000000 magnetization 
 augmentation part       54.0000000 magnetization 

 Free energy of the ion-electron system (eV)
  ---------------------------------------------------
  alpha Z        PSCENC =       124.48026401
  Ewald energy   TEWEN  =     -3287.13745895
  -Hartree energ DENC   =     -2310.80269432
  -exchange      EXHF   =         0.00000000
  -V(xc)+E(xc)   XCENC  =        86.31104968
  PAW double counting   =      4988.91998590    -5406.16159368
  entropy T*S    EENTRO =        -0.01055689
  eigenvalues    EBANDS =       -46.03229634
  atomic energy  EATOM  =      5916.28428415
  Solvation  Ediel_sol  =         0.00000000
  ---------------------------------------------------
  free energy    TOTEN  =        65.85098356 eV

  energy without entropy =       65.86154045  energy(sigma->0) =       65.85626200


--------------------------------------------------------------------------------------------------------




--------------------------------------- Iteration      1(   2)  ---------------------------------------


     EDDAV:  cpu time   20.9645: real time   21.1384
       DOS:  cpu time    0.0052: real time    0.0052
    --------------------------------------------
      LOOP:  cpu time   20.9696: real time   21.1436

 eigenvalue-minimisations  : 11456
 total energy-change (2. order) :-0.8107312E+02  (-0.8101712E+02)
 number of electron      54.0000000 magnetization 
 augmentation part       54.0000000 magnetization 

 Free energy of the ion-electron system (eV)
  ---------------------------------------------------
  alpha Z        PSCENC =       124.48026401
  Ewald energy   TEWEN  =     -3287.13745895
  -Hartree energ DENC   =     -2310.80269432
  -exchange      EXHF   =         0.00000000
  -V(xc)+E(xc)   XCENC  =        86.31104968
  PAW double counting   =      4988.91998590    -5406.16159368
  entropy T*S    EENTRO =        -0.00000016
  eigenvalues    EBANDS =      -127.11597385
  atomic energy  EATOM  =      5916.28428415
  Solvation  Ediel_sol  =         0.00000000
  ---------------------------------------------------
  free energy    TOTEN  =       -15.22213723 eV

  energy without entropy =      -15.22213707  energy(sigma->0) =      -15.22213715


--------------------------------------------------------------------------------------------------------




--------------------------------------- Iteration      1(   3)  ---------------------------------------


     EDDAV:  cpu time   12.7638: real time   12.8419
       DOS:  cpu time    0.0163: real time    0.0163
    --------------------------------------------
      LOOP:  cpu time   12.7802: real time   12.8583

 eigenvalue-minimisations  :  8704
 total energy-change (2. order) :-0.8166620E+00  (-0.8166620E+00)
 number of electron      54.0000000 magnetization 
 augmentation part       54.0000000 magnetization 

 Free energy of the ion-electron system (eV)
  ---------------------------------------------------
  alpha Z        PSCENC =       124.48026401
  Ewald energy   TEWEN  =     -3287.13745895
  -Hartree energ DENC   =     -2310.80269432
  -exchange      EXHF   =         0.00000000
  -V(xc)+E(xc)   XCENC  =        86.31104968
  PAW double counting   =      4988.91998590    -5406.16159368
  entropy T*S    EENTRO =        -0.00000012
  eigenvalues    EBANDS =      -127.93263593
  atomic energy  EATOM  =      5916.28428415
  Solvation  Ediel_sol  =         0.00000000
  ---------------------------------------------------
  free energy    TOTEN  =       -16.03879926 eV

  energy without entropy =      -16.03879914  energy(sigma->0) =      -16.03879920


--------------------------------------------------------------------------------------------------------




--------------------------------------- Iteration      1(   4)  ---------------------------------------


     EDDAV:  cpu time   36.4745: real time   36.9461
       DOS:  cpu time    0.0052: real time    0.0052
    --------------------------------------------
      LOOP:  cpu time   36.4796: real time   36.9513

 eigenvalue-minimisations  : 15680
 total energy-change (2. order) :-0.4362748E-02  (-0.4362748E-02)
 number of electron      54.0000000 magnetization 
 augmentation part       54.0000000 magnetization 

 Free energy of the ion-electron system (eV)
  ---------------------------------------------------
  alpha Z        PSCENC =       124.48026401
  Ewald energy   TEWEN  =     -3287.13745895
  -Hartree energ DENC   =     -2310.80269432
  -exchange      EXHF   =         0.00000000
  -V(xc)+E(xc)   XCENC  =        86.31104968
  PAW double counting   =      4988.91998590    -5406.16159368
  entropy T*S    EENTRO =        -0.00000012
  eigenvalues    EBANDS =      -127.93699868
  atomic energy  EATOM  =      5916.28428415
  Solvation  Ediel_sol  =         0.00000000
  ---------------------------------------------------
  free energy    TOTEN  =       -16.04316201 eV

  energy without entropy =      -16.04316189  energy(sigma->0) =      -16.04316195


--------------------------------------------------------------------------------------------------------




--------------------------------------- Iteration      1(   5)  ---------------------------------------


     EDDAV:  cpu time   12.6130: real time   12.7143
       DOS:  cpu time    0.0054: real time    0.0054
    CHARGE:  cpu time    0.1373: real time    0.1379
    MIXING:  cpu time    0.0040: real time    0.0053
    --------------------------------------------
      LOOP:  cpu time   12.7597: real time   12.8629

 eigenvalue-minimisations  :  8448
 total energy-change (2. order) :-0.4554231E-06  (-0.4553008E-06)
 number of electron      53.9999922 magnetization 
 augmentation part       20.2765922 magnetization 

 Broyden mixing:
  rms(total) = 0.75909E+00    rms(broyden)= 0.75908E+00
  rms(prec ) = 0.83979E+00
  weight for this iteration     100.00

 Free energy of the ion-electron system (eV)
  ---------------------------------------------------
  alpha Z        PSCENC =       124.48026401
  Ewald energy   TEWEN  =     -3287.13745895
  -Hartree energ DENC   =     -2310.80269432
  -exchange      EXHF   =         0.00000000
  -V(xc)+E(xc)   XCENC  =        86.31104968
  PAW double counting   =      4988.91998590    -5406.16159368
  entropy T*S    EENTRO =        -0.00000012
  eigenvalues    EBANDS =      -127.93699913
  atomic energy  EATOM  =      5916.28428415
  Solvation  Ediel_sol  =         0.00000000
  ---------------------------------------------------
  free energy    TOTEN  =       -16.04316246 eV

  energy without entropy =      -16.04316234  energy(sigma->0) =      -16.04316240


--------------------------------------------------------------------------------------------------------




--------------------------------------- Iteration      1(   6)  ---------------------------------------


    POTLOK:  cpu time    0.0427: real time    0.0428
    SETDIJ:  cpu time    0.0102: real time    0.0102
     EDDAV:  cpu time   17.6053: real time   17.7060
       DOS:  cpu time    0.0051: real time    0.0051
    CHARGE:  cpu time    0.1219: real time    0.1219
    MIXING:  cpu time    0.0022: real time    0.0026
    --------------------------------------------
      LOOP:  cpu time   17.7874: real time   17.8886

 eigenvalue-minimisations  : 10368
 total energy-change (2. order) : 0.4917694E+00  (-0.2871185E+00)
 number of electron      53.9999921 magnetization 
 augmentation part       20.5992220 magnetization 

 Broyden mixing:
  rms(total) = 0.56730E+00    rms(broyden)= 0.56730E+00
  rms(prec ) = 0.58224E+00
  weight for this iteration     100.00

 eigenvalues of (default mixing * dielectric matrix)
  average eigenvalue GAMMA=   1.6380
  1.6380

 Free energy of the ion-electron system (eV)
  ---------------------------------------------------
  alpha Z        PSCENC =       124.48026401
  Ewald energy   TEWEN  =     -3287.13745895
  -Hartree energ DENC   =     -2286.09330898
  -exchange      EXHF   =         0.00000000
  -V(xc)+E(xc)   XCENC  =        85.80417436
  PAW double counting   =      5262.46543096    -5672.66405746
  entropy T*S    EENTRO =        -0.00000143
  eigenvalues    EBANDS =      -158.69071976
  atomic energy  EATOM  =      5916.28428415
  Solvation  Ediel_sol  =         0.00000000
  ---------------------------------------------------
  free energy    TOTEN  =       -15.55139309 eV

  energy without entropy =      -15.55139166  energy(sigma->0) =      -15.55139238


--------------------------------------------------------------------------------------------------------




--------------------------------------- Iteration      1(   7)  ---------------------------------------


    POTLOK:  cpu time    0.0331: real time    0.0568
    SETDIJ:  cpu time    0.0103: real time    0.0103
     EDDAV:  cpu time   26.2487: real time   26.2857
       DOS:  cpu time    0.0050: real time    0.0050
    CHARGE:  cpu time    0.1232: real time    0.1232
    MIXING:  cpu time    0.0016: real time    0.0019
    --------------------------------------------
      LOOP:  cpu time   26.4219: real time   26.4830

 eigenvalue-minimisations  : 13056
 total energy-change (2. order) : 0.4355744E-01  (-0.2178585E-01)
 number of electron      53.9999921 magnetization 
 augmentation part       20.5588983 magnetization 

 Broyden mixing:
  rms(total) = 0.21745E+00    rms(broyden)= 0.21745E+00
  rms(prec ) = 0.22484E+00
  weight for this iteration     100.00

 eigenvalues of (default mixing * dielectric matrix)
  average eigenvalue GAMMA=   1.6840
  0.8622  2.5059

 Free energy of the ion-electron system (eV)
  ---------------------------------------------------
  alpha Z        PSCENC =       124.48026401
  Ewald energy   TEWEN  =     -3287.13745895
  -Hartree energ DENC   =     -2287.00454294
  -exchange      EXHF   =         0.00000000
  -V(xc)+E(xc)   XCENC  =        86.21464346
  PAW double counting   =      5623.44250373    -6039.37951878
  entropy T*S    EENTRO =        -0.00000327
  eigenvalues    EBANDS =      -152.40800706
  atomic energy  EATOM  =      5916.28428415
  Solvation  Ediel_sol  =         0.00000000
  ---------------------------------------------------
  free energy    TOTEN  =       -15.50783565 eV

  energy without entropy =      -15.50783238  energy(sigma->0) =      -15.50783401


--------------------------------------------------------------------------------------------------------




--------------------------------------- Iteration      1(   8)  ---------------------------------------


    POTLOK:  cpu time    0.0267: real time    0.0268
    SETDIJ:  cpu time    0.0102: real time    0.0102
     EDDAV:  cpu time   20.0769: real time   20.1414
       DOS:  cpu time    0.0051: real time    0.0051
    CHARGE:  cpu time    0.1218: real time    0.1218
    MIXING:  cpu time    0.0013: real time    0.0013
    --------------------------------------------
      LOOP:  cpu time   20.2420: real time   20.3066

 eigenvalue-minimisations  : 11008
 total energy-change (2. order) : 0.8181796E-04  (-0.3188298E-02)
 number of electron      53.9999921 magnetization 
 augmentation part       20.5764539 magnetization 

 Broyden mixing:
  rms(total) = 0.30267E-01    rms(broyden)= 0.30267E-01
  rms(prec ) = 0.35449E-01
  weight for this iteration     100.00

 eigenvalues of (default mixing * dielectric matrix)
  average eigenvalue GAMMA=   1.6346
  2.5256  0.9125  1.4655

 Free energy of the ion-electron system (eV)
  ---------------------------------------------------
  alpha Z        PSCENC =       124.48026401
  Ewald energy   TEWEN  =     -3287.13745895
  -Hartree energ DENC   =     -2283.78879200
  -exchange      EXHF   =         0.00000000
  -V(xc)+E(xc)   XCENC  =        86.31286845
  PAW double counting   =      5898.23564126    -6315.78463742
  entropy T*S    EENTRO =        -0.00000452
  eigenvalues    EBANDS =      -154.10991881
  atomic energy  EATOM  =      5916.28428415
  Solvation  Ediel_sol  =         0.00000000
  ---------------------------------------------------
  free energy    TOTEN  =       -15.50775383 eV

  energy without entropy =      -15.50774931  energy(sigma->0) =      -15.50775157


--------------------------------------------------------------------------------------------------------




--------------------------------------- Iteration      1(   9)  ---------------------------------------


    POTLOK:  cpu time    0.0327: real time    0.0575
    SETDIJ:  cpu time    0.0101: real time    0.0101
     EDDAV:  cpu time   23.8683: real time   23.8764
       DOS:  cpu time    0.0049: real time    0.0049
    CHARGE:  cpu time    0.1230: real time    0.1230
    MIXING:  cpu time    0.0014: real time    0.0014
    --------------------------------------------
      LOOP:  cpu time   24.0405: real time   24.0734

 eigenvalue-minimisations  : 12608
 total energy-change (2. order) : 0.5439660E-03  (-0.7608489E-03)
 number of electron      53.9999921 magnetization 
 augmentation part       20.5770560 magnetization 

 Broyden mixing:
  rms(total) = 0.74876E-02    rms(broyden)= 0.74875E-02
  rms(prec ) = 0.83895E-02
  weight for this iteration     100.00

 eigenvalues of (default mixing * dielectric matrix)
  average eigenvalue GAMMA=   1.4441
  2.4564  1.6576  0.8841  0.7784

 Free energy of the ion-electron system (eV)
  ---------------------------------------------------
  alpha Z        PSCENC =       124.48026401
  Ewald energy   TEWEN  =     -3287.13745895
  -Hartree energ DENC   =     -2283.49544160
  -exchange      EXHF   =         0.00000000
  -V(xc)+E(xc)   XCENC  =        86.29147758
  PAW double counting   =      5922.75658653    -6340.24363890
  entropy T*S    EENTRO =        -0.00000356
  eigenvalues    EBANDS =      -154.44327912
  atomic energy  EATOM  =      5916.28428415
  Solvation  Ediel_sol  =         0.00000000
  ---------------------------------------------------
  free energy    TOTEN  =       -15.50720987 eV

  energy without entropy =      -15.50720631  energy(sigma->0) =      -15.50720809


--------------------------------------------------------------------------------------------------------




--------------------------------------- Iteration      1(  10)  ---------------------------------------


    POTLOK:  cpu time    0.0524: real time    0.0525
    SETDIJ:  cpu time    0.0328: real time    0.0328
     EDDAV:  cpu time   22.3518: real time   22.4080
       DOS:  cpu time    0.0050: real time    0.0050
    --------------------------------------------
      LOOP:  cpu time   22.4419: real time   22.4983

 eigenvalue-minimisations  : 11648
 total energy-change (2. order) :-0.1235946E-03  (-0.2162097E-04)
 number of electron      53.9999921 magnetization 
 augmentation part       20.5770560 magnetization 

 Free energy of the ion-electron system (eV)
  ---------------------------------------------------
  alpha Z        PSCENC =       124.48026401
  Ewald energy   TEWEN  =     -3287.13745895
  -Hartree energ DENC   =     -2283.59707829
  -exchange      EXHF   =         0.00000000
  -V(xc)+E(xc)   XCENC  =        86.29473095
  PAW double counting   =      5919.07022571    -6336.55064582
  entropy T*S    EENTRO =        -0.00000345
  eigenvalues    EBANDS =      -154.35165177
  atomic energy  EATOM  =      5916.28428415
  Solvation  Ediel_sol  =         0.00000000
  ---------------------------------------------------
  free energy    TOTEN  =       -15.50733346 eV

  energy without entropy =      -15.50733001  energy(sigma->0) =      -15.50733174


--------------------------------------------------------------------------------------------------------




 average (electrostatic) potential at core
  the test charge radii are     0.9521  1.1897
  (the norm of the test charge is              1.0000)
       1 -36.2879       2 -36.2883       3 -36.2871       4 -90.9841       5 -90.9846
       6 -90.9825
 
 
 
 E-fermi :   3.3719     XC(G=0):  -8.7765     alpha+bet : -7.9814


 k-point     1 :       0.0000    0.0000    0.0000
  band No.  band energies     occupation 
      1      -8.7138      2.00000
      2      -8.1464      2.00000
      3      -8.1444      2.00000
      4      -3.9575      2.00000
      5      -3.9540      2.00000
      6      -3.9539      2.00000
      7      -3.9179      2.00000
      8      -3.9140      2.00000
      9      -3.9138      2.00000
     10      -3.9075      2.00000
     11      -3.8089      2.00000
     12      -3.8083      2.00000
     13      -3.7503      2.00000
     14      -3.7468      2.00000
     15      -3.7462      2.00000
     16      -3.7445      2.00000
     17      -3.7439      2.00000
     18      -3.7409      2.00000
     19      -1.1277      2.00000
     20      -1.1265      2.00000
     21       2.1181      2.00000
     22       2.1618      2.00000
     23       2.1618      2.00000
     24       2.1989      2.00000
     25       2.8166      1.99991
     26       2.8167      1.99991
     27       2.8286      1.99988
     28       3.8743      0.00038
     29       4.7081      0.00000
     30       4.7100      0.00000
     31       7.2379      0.00000
     32       7.2380      0.00000
     33       7.2547      0.00000
     34       7.8562      0.00000
     35       7.9465      0.00000
     36       7.9468      0.00000
     37       8.0445      0.00000
     38       9.7258      0.00000
     39       9.7288      0.00000
     40      10.0787      0.00000
     41      11.0477      0.00000
     42      11.0487      0.00000
     43      11.7916      0.00000
     44      11.8782      0.00000
     45      11.8785      0.00000
     46      12.0557      0.00000
     47      12.3678      0.00000
     48      12.3681      0.00000
     49      13.3997      0.00000
     50      13.4083      0.00000
     51      13.4084      0.00000
     52      15.2135      0.00000
     53      15.2142      0.00000
     54      16.0939      0.00000
     55      17.0978      0.00000
     56      17.2611      0.00000
     57      17.2612      0.00000
     58      17.3955      0.00000
     59      18.1805      0.00000
     60      18.1830      0.00000
     61      18.4378      0.00000
     62      18.5634      0.00000
     63      18.5637      0.00000
     64      18.7175      0.00000

 k-point     2 :       0.2000   -0.0000    0.0000
  band No.  band energies     occupation 
      1      -8.4964      2.00000
      2      -7.9989      2.00000
      3      -7.9852      2.00000
      4      -3.9414      2.00000
      5      -3.9320      2.00000
      6      -3.9257      2.00000
      7      -3.9043      2.00000
      8      -3.8972      2.00000
      9      -3.8949      2.00000
     10      -3.8784      2.00000
     11      -3.8227      2.00000
     12      -3.7882      2.00000
     13      -3.7552      2.00000
     14      -3.7511      2.00000
     15      -3.7449      2.00000
     16      -3.7356      2.00000
     17      -3.7147      2.00000
     18      -3.7116      2.00000
     19      -1.1635      2.00000
     20      -1.1416      2.00000
     21       0.6256      2.00000
     22       0.7245      2.00000
     23       1.1089      2.00000
     24       1.5006      2.00000
     25       2.0499      2.00000
     26       2.3410      2.00000
     27       2.4618      2.00000
     28       5.1316      0.00000
     29       5.6977      0.00000
     30       5.8831      0.00000
     31       7.0876      0.00000
     32       7.1850      0.00000
     33       7.9440      0.00000
     34       8.0221      0.00000
     35       8.0969      0.00000
     36       8.4585      0.00000
     37       8.7208      0.00000
     38       8.8314      0.00000
     39       9.3208      0.00000
     40      10.7008      0.00000
     41      10.9205      0.00000
     42      11.6064      0.00000
     43      11.8696      0.00000
     44      12.0416      0.00000
     45      12.6869      0.00000
     46      13.1559      0.00000
     47      13.2862      0.00000
     48      13.5991      0.00000
     49      14.0568      0.00000
     50      14.6387      0.00000
     51      15.0495      0.00000
     52      15.1767      0.00000
     53      15.5590      0.00000
     54      15.8126      0.00000
     55      16.0177      0.00000
     56      17.1147      0.00000
     57      17.4096      0.00000
     58      17.7550      0.00000
     59      18.4511      0.00000
     60      18.8716      0.00000
     61      19.2132      0.00000
     62      19.3495      0.00000
     63      20.2576      0.00000
     64      20.3918      0.00000

 k-point     3 :       0.4000    0.0000    0.0000
  band No.  band energies     occupation 
      1      -8.0265      2.00000
      2      -7.8047      2.00000
      3      -7.6872      2.00000
      4      -3.9109      2.00000
      5      -3.8972      2.00000
      6      -3.8928      2.00000
      7      -3.8844      2.00000
      8      -3.8770      2.00000
      9      -3.8283      2.00000
     10      -3.8251      2.00000
     11      -3.7947      2.00000
     12      -3.7593      2.00000
     13      -3.7449      2.00000
     14      -3.7378      2.00000
     15      -3.7279      2.00000
     16      -3.7215      2.00000
     17      -3.5962      2.00000
     18      -3.5839      2.00000
     19      -1.8780      2.00000
     20      -1.7836      2.00000
     21      -1.3081      2.00000
     22       0.5080      2.00000
     23       0.7433      2.00000
     24       0.8871      2.00000
     25       1.4778      2.00000
     26       1.6795      2.00000
     27       1.7395      2.00000
     28       5.1946      0.00000
     29       5.4226      0.00000
     30       5.6227      0.00000
     31       5.7444      0.00000
     32       7.4340      0.00000
     33       7.8135      0.00000
     34       8.6461      0.00000
     35       8.8417      0.00000
     36       9.1168      0.00000
     37      10.2020      0.00000
     38      11.3604      0.00000
     39      11.5003      0.00000
     40      11.6390      0.00000
     41      11.8327      0.00000
     42      12.2658      0.00000
     43      12.4540      0.00000
     44      12.6620      0.00000
     45      13.2572      0.00000
     46      13.4557      0.00000
     47      14.4609      0.00000
     48      14.8839      0.00000
     49      15.1085      0.00000
     50      15.3274      0.00000
     51      15.7458      0.00000
     52      15.9469      0.00000
     53      16.2081      0.00000
     54      16.7564      0.00000
     55      17.2004      0.00000
     56      17.2879      0.00000
     57      17.4496      0.00000
     58      17.7898      0.00000
     59      18.0739      0.00000
     60      18.2547      0.00000
     61      18.6166      0.00000
     62      18.9727      0.00000
     63      19.1574      0.00000
     64      19.5179      0.00000

 k-point     4 :       0.0000    0.2000    0.0000
  band No.  band energies     occupation 
      1      -8.4964      2.00000
      2      -7.9992      2.00000
      3      -7.9849      2.00000
      4      -3.9415      2.00000
      5      -3.9320      2.00000
      6      -3.9256      2.00000
      7      -3.9047      2.00000
      8      -3.8971      2.00000
      9      -3.8944      2.00000
     10      -3.8786      2.00000
     11      -3.8227      2.00000
     12      -3.7882      2.00000
     13      -3.7553      2.00000
     14      -3.7511      2.00000
     15      -3.7448      2.00000
     16      -3.7356      2.00000
     17      -3.7147      2.00000
     18      -3.7116      2.00000
     19      -1.1627      2.00000
     20      -1.1424      2.00000
     21       0.6260      2.00000
     22       0.7239      2.00000
     23       1.1090      2.00000
     24       1.5007      2.00000
     25       2.0498      2.00000
     26       2.3410      2.00000
     27       2.4618      2.00000
     28       5.1315      0.00000
     29       5.6980      0.00000
     30       5.8829      0.00000
     31       7.0882      0.00000
     32       7.1845      0.00000
     33       7.9439      0.00000
     34       8.0217      0.00000
     35       8.0973      0.00000
     36       8.4585      0.00000
     37       8.7209      0.00000
     38       8.8312      0.00000
     39       9.3207      0.00000
     40      10.7009      0.00000
     41      10.9205      0.00000
     42      11.6064      0.00000
     43      11.8697      0.00000
     44      12.0417      0.00000
     45      12.6867      0.00000
     46      13.1559      0.00000
     47      13.2863      0.00000
     48      13.5990      0.00000
     49      14.0568      0.00000
     50      14.6388      0.00000
     51      15.0497      0.00000
     52      15.1766      0.00000
     53      15.5589      0.00000
     54      15.8126      0.00000
     55      16.0177      0.00000
     56      17.1147      0.00000
     57      17.4097      0.00000
     58      17.7550      0.00000
     59      18.4511      0.00000
     60      18.8716      0.00000
     61      19.2132      0.00000
     62      19.3492      0.00000
     63      20.2574      0.00000
     64      20.3920      0.00000

 k-point     5 :       0.2000    0.2000    0.0000
  band No.  band energies     occupation 
      1      -8.1465      2.00000
      2      -7.7910      2.00000
      3      -7.7826      2.00000
      4      -3.9121      2.00000
      5      -3.9051      2.00000
      6      -3.8859      2.00000
      7      -3.8814      2.00000
      8      -3.8657      2.00000
      9      -3.8631      2.00000
     10      -3.8390      2.00000
     11      -3.7979      2.00000
     12      -3.7934      2.00000
     13      -3.7560      2.00000
     14      -3.7400      2.00000
     15      -3.7375      2.00000
     16      -3.7319      2.00000
     17      -3.6241      2.00000
     18      -3.6205      2.00000
     19      -1.5736      2.00000
     20      -1.5288      2.00000
     21      -0.6657      2.00000
     22       0.3829      2.00000
     23       0.4169      2.00000
     24       0.9352      2.00000
     25       1.1262      2.00000
     26       1.1649      2.00000
     27       2.2731      2.00000
     28       5.8069      0.00000
     29       6.2204      0.00000
     30       6.3285      0.00000
     31       7.0906      0.00000
     32       7.1691      0.00000
     33       7.9255      0.00000
     34       8.1645      0.00000
     35       8.3366      0.00000
     36       8.4093      0.00000
     37       8.5113      0.00000
     38      10.4839      0.00000
     39      10.7528      0.00000
     40      10.8161      0.00000
     41      11.8126      0.00000
     42      11.8345      0.00000
     43      12.6863      0.00000
     44      13.2521      0.00000
     45      13.3051      0.00000
     46      13.4077      0.00000
     47      14.4977      0.00000
     48      14.8765      0.00000
     49      15.0518      0.00000
     50      15.1976      0.00000
     51      15.2707      0.00000
     52      15.6927      0.00000
     53      16.4467      0.00000
     54      16.4699      0.00000
     55      16.6766      0.00000
     56      16.8599      0.00000
     57      16.8669      0.00000
     58      18.3415      0.00000
     59      18.4299      0.00000
     60      18.9549      0.00000
     61      19.2925      0.00000
     62      19.4018      0.00000
     63      20.1327      0.00000
     64      20.7222      0.00000

 k-point     6 :       0.4000    0.2000    0.0000
  band No.  band energies     occupation 
      1      -7.7972      2.00000
      2      -7.7647      2.00000
      3      -7.6383      2.00000
      4      -3.8936      2.00000
      5      -3.8884      2.00000
      6      -3.8816      2.00000
      7      -3.8765      2.00000
      8      -3.8698      2.00000
      9      -3.8342      2.00000
     10      -3.7995      2.00000
     11      -3.7647      2.00000
     12      -3.7614      2.00000
     13      -3.7486      2.00000
     14      -3.7465      2.00000
     15      -3.7347      2.00000
     16      -3.5917      2.00000
     17      -3.5757      2.00000
     18      -3.5175      2.00000
     19      -1.9153      2.00000
     20      -1.7782      2.00000
     21      -1.7224      2.00000
     22       0.1048      2.00000
     23       0.2358      2.00000
     24       0.2569      2.00000
     25       1.0189      2.00000
     26       1.4887      2.00000
     27       1.5584      2.00000
     28       5.3771      0.00000
     29       5.9306      0.00000
     30       6.0813      0.00000
     31       6.8489      0.00000
     32       7.7958      0.00000
     33       7.8415      0.00000
     34       8.9369      0.00000
     35       9.1120      0.00000
     36      10.0653      0.00000
     37      10.1671      0.00000
     38      10.7470      0.00000
     39      10.9683      0.00000
     40      11.0434      0.00000
     41      11.1105      0.00000
     42      11.6142      0.00000
     43      12.3122      0.00000
     44      12.3428      0.00000
     45      13.1184      0.00000
     46      14.0956      0.00000
     47      14.1196      0.00000
     48      15.5803      0.00000
     49      15.8143      0.00000
     50      15.8836      0.00000
     51      16.6296      0.00000
     52      17.0240      0.00000
     53      17.1881      0.00000
     54      17.3055      0.00000
     55      17.4541      0.00000
     56      17.4990      0.00000
     57      17.6137      0.00000
     58      17.9015      0.00000
     59      18.3060      0.00000
     60      18.3470      0.00000
     61      18.4907      0.00000
     62      20.0478      0.00000
     63      20.1011      0.00000
     64      20.2601      0.00000

 k-point     7 :      -0.4000    0.2000    0.0000
  band No.  band energies     occupation 
      1      -8.1465      2.00000
      2      -7.7900      2.00000
      3      -7.7837      2.00000
      4      -3.9119      2.00000
      5      -3.9055      2.00000
      6      -3.8857      2.00000
      7      -3.8815      2.00000
      8      -3.8655      2.00000
      9      -3.8633      2.00000
     10      -3.8389      2.00000
     11      -3.7983      2.00000
     12      -3.7930      2.00000
     13      -3.7560      2.00000
     14      -3.7396      2.00000
     15      -3.7378      2.00000
     16      -3.7320      2.00000
     17      -3.6239      2.00000
     18      -3.6207      2.00000
     19      -1.5736      2.00000
     20      -1.5288      2.00000
     21      -0.6657      2.00000
     22       0.3828      2.00000
     23       0.4170      2.00000
     24       0.9346      2.00000
     25       1.1265      2.00000
     26       1.1651      2.00000
     27       2.2731      2.00000
     28       5.8071      0.00000
     29       6.2197      0.00000
     30       6.3290      0.00000
     31       7.0906      0.00000
     32       7.1690      0.00000
     33       7.9256      0.00000
     34       8.1647      0.00000
     35       8.3359      0.00000
     36       8.4096      0.00000
     37       8.5116      0.00000
     38      10.4836      0.00000
     39      10.7520      0.00000
     40      10.8169      0.00000
     41      11.8129      0.00000
     42      11.8342      0.00000
     43      12.6865      0.00000
     44      13.2522      0.00000
     45      13.3049      0.00000
     46      13.4077      0.00000
     47      14.4973      0.00000
     48      14.8765      0.00000
     49      15.0520      0.00000
     50      15.1977      0.00000
     51      15.2708      0.00000
     52      15.6926      0.00000
     53      16.4461      0.00000
     54      16.4704      0.00000
     55      16.6763      0.00000
     56      16.8603      0.00000
     57      16.8670      0.00000
     58      18.3416      0.00000
     59      18.4297      0.00000
     60      18.9549      0.00000
     61      19.2922      0.00000
     62      19.4023      0.00000
     63      20.1327      0.00000
     64      20.7213      0.00000

 k-point     8 :      -0.2000    0.2000    0.0000
  band No.  band energies     occupation 
      1      -8.4964      2.00000
      2      -7.9990      2.00000
      3      -7.9850      2.00000
      4      -3.9413      2.00000
      5      -3.9321      2.00000
      6      -3.9257      2.00000
      7      -3.9045      2.00000
      8      -3.8970      2.00000
      9      -3.8947      2.00000
     10      -3.8784      2.00000
     11      -3.8227      2.00000
     12      -3.7882      2.00000
     13      -3.7552      2.00000
     14      -3.7510      2.00000
     15      -3.7449      2.00000
     16      -3.7357      2.00000
     17      -3.7149      2.00000
     18      -3.7114      2.00000
     19      -1.1630      2.00000
     20      -1.1421      2.00000
     21       0.6263      2.00000
     22       0.7237      2.00000
     23       1.1089      2.00000
     24       1.5006      2.00000
     25       2.0498      2.00000
     26       2.3411      2.00000
     27       2.4618      2.00000
     28       5.1316      0.00000
     29       5.6978      0.00000
     30       5.8831      0.00000
     31       7.0877      0.00000
     32       7.1850      0.00000
     33       7.9441      0.00000
     34       8.0221      0.00000
     35       8.0967      0.00000
     36       8.4584      0.00000
     37       8.7209      0.00000
     38       8.8313      0.00000
     39       9.3207      0.00000
     40      10.7009      0.00000
     41      10.9205      0.00000
     42      11.6063      0.00000
     43      11.8696      0.00000
     44      12.0416      0.00000
     45      12.6868      0.00000
     46      13.1561      0.00000
     47      13.2860      0.00000
     48      13.5992      0.00000
     49      14.0568      0.00000
     50      14.6386      0.00000
     51      15.0496      0.00000
     52      15.1769      0.00000
     53      15.5589      0.00000
     54      15.8125      0.00000
     55      16.0177      0.00000
     56      17.1145      0.00000
     57      17.4096      0.00000
     58      17.7551      0.00000
     59      18.4512      0.00000
     60      18.8715      0.00000
     61      19.2132      0.00000
     62      19.3494      0.00000
     63      20.2574      0.00000
     64      20.3920      0.00000

 k-point     9 :       0.0000    0.4000    0.0000
  band No.  band energies     occupation 
      1      -8.0264      2.00000
      2      -7.8050      2.00000
      3      -7.6869      2.00000
      4      -3.9110      2.00000
      5      -3.8971      2.00000
      6      -3.8927      2.00000
      7      -3.8845      2.00000
      8      -3.8770      2.00000
      9      -3.8283      2.00000
     10      -3.8251      2.00000
     11      -3.7947      2.00000
     12      -3.7594      2.00000
     13      -3.7450      2.00000
     14      -3.7377      2.00000
     15      -3.7279      2.00000
     16      -3.7216      2.00000
     17      -3.5963      2.00000
     18      -3.5838      2.00000
     19      -1.8782      2.00000
     20      -1.7833      2.00000
     21      -1.3081      2.00000
     22       0.5080      2.00000
     23       0.7433      2.00000
     24       0.8871      2.00000
     25       1.4778      2.00000
     26       1.6797      2.00000
     27       1.7393      2.00000
     28       5.1947      0.00000
     29       5.4225      0.00000
     30       5.6229      0.00000
     31       5.7445      0.00000
     32       7.4331      0.00000
     33       7.8141      0.00000
     34       8.6462      0.00000
     35       8.8416      0.00000
     36       9.1168      0.00000
     37      10.2020      0.00000
     38      11.3609      0.00000
     39      11.4997      0.00000
     40      11.6393      0.00000
     41      11.8329      0.00000
     42      12.2655      0.00000
     43      12.4543      0.00000
     44      12.6618      0.00000
     45      13.2575      0.00000
     46      13.4557      0.00000
     47      14.4608      0.00000
     48      14.8838      0.00000
     49      15.1085      0.00000
     50      15.3274      0.00000
     51      15.7460      0.00000
     52      15.9467      0.00000
     53      16.2080      0.00000
     54      16.7567      0.00000
     55      17.2000      0.00000
     56      17.2880      0.00000
     57      17.4497      0.00000
     58      17.7897      0.00000
     59      18.0740      0.00000
     60      18.2548      0.00000
     61      18.6167      0.00000
     62      18.9727      0.00000
     63      19.1574      0.00000
     64      19.5177      0.00000

 k-point    10 :       0.2000    0.4000    0.0000
  band No.  band energies     occupation 
      1      -7.7963      2.00000
      2      -7.7659      2.00000
      3      -7.6380      2.00000
      4      -3.8936      2.00000
      5      -3.8884      2.00000
      6      -3.8817      2.00000
      7      -3.8762      2.00000
      8      -3.8700      2.00000
      9      -3.8341      2.00000
     10      -3.7994      2.00000
     11      -3.7646      2.00000
     12      -3.7616      2.00000
     13      -3.7489      2.00000
     14      -3.7463      2.00000
     15      -3.7346      2.00000
     16      -3.5916      2.00000
     17      -3.5759      2.00000
     18      -3.5174      2.00000
     19      -1.9159      2.00000
     20      -1.7765      2.00000
     21      -1.7234      2.00000
     22       0.1051      2.00000
     23       0.2351      2.00000
     24       0.2574      2.00000
     25       1.0188      2.00000
     26       1.4891      2.00000
     27       1.5582      2.00000
     28       5.3775      0.00000
     29       5.9291      0.00000
     30       6.0824      0.00000
     31       6.8489      0.00000
     32       7.7972      0.00000
     33       7.8400      0.00000
     34       8.9370      0.00000
     35       9.1118      0.00000
     36      10.0645      0.00000
     37      10.1679      0.00000
     38      10.7471      0.00000
     39      10.9693      0.00000
     40      11.0433      0.00000
     41      11.1097      0.00000
     42      11.6141      0.00000
     43      12.3116      0.00000
     44      12.3438      0.00000
     45      13.1180      0.00000
     46      14.0958      0.00000
     47      14.1193      0.00000
     48      15.5805      0.00000
     49      15.8134      0.00000
     50      15.8845      0.00000
     51      16.6296      0.00000
     52      17.0240      0.00000
     53      17.1879      0.00000
     54      17.3055      0.00000
     55      17.4538      0.00000
     56      17.4998      0.00000
     57      17.6137      0.00000
     58      17.9009      0.00000
     59      18.3057      0.00000
     60      18.3474      0.00000
     61      18.4909      0.00000
     62      20.0481      0.00000
     63      20.1008      0.00000
     64      20.2601      0.00000

 k-point    11 :       0.4000    0.4000    0.0000
  band No.  band energies     occupation 
      1      -7.7971      2.00000
      2      -7.7649      2.00000
      3      -7.6382      2.00000
      4      -3.8938      2.00000
      5      -3.8884      2.00000
      6      -3.8813      2.00000
      7      -3.8765      2.00000
      8      -3.8700      2.00000
      9      -3.8341      2.00000
     10      -3.7994      2.00000
     11      -3.7646      2.00000
[...]
   45        eccp                                  0.656356                         3024   3
   46        truncate_high_frequency_w1            0.015941                        13725   3
   47        setup_precond                         0.095203                         3024   3
   48        hamiltmu                             32.712281                        10701   3
   49          vhamil                                2.842004                      10701   4
   50          overl1                                0.221285                      10701   4
   51          vnlac0                               11.335152                      10701   4
   52            gemm                                  8.846697                    64206   5
   53            work_mul_crexp                        2.054346                    64206   5
   54          kinhamil                             17.710866                      10701   4
   55            fftext_mpi                           17.452923                    10701   5
   56              fft3d_mpi                            16.485083                  10701   6
   57                fft3d                                16.430570                10701   7
   58        overl                                 0.429452                        18378   3
   59        orth1                                10.045228                        29079   3
   60        apply_precond                         0.331402                         7677   3
   61        w1_projall                            7.966917                         7677   3
   62          proj1                                 7.905318                       7677   4
   63      set_charge                            4.086346                             29   2
   64        soft_charge                           3.886453                           29   3
   65          fftwav_mpi                            2.969042                       1827   4
   66            fftwav                                2.962723                     1827   5
   67              fft3d                                 2.717569                   1827   6
   68          pw_charge                             0.261699                       1827   4
   69          fft3d_mpi                             0.111490                         29   4
   70            fftbas_plan_mpi                       0.102304                       29   5
   71              dfftw_execute                         0.009810                     87   6
   72              map_backward                          0.088989                     58   6
   73                map_gather                            0.003054                   58   7
   74                m_alltoallv_z                         0.084724                   58   7
   75                map_scatter                           0.000691                   58   7
   76        depsum                                0.125815                           29   3
   77        fft3d_mpi                             0.039328                           29   3
   78          fftbas_plan_mpi                       0.038869                         29   4
   79            dfftw_execute                         0.004350                       87   5
   80            map_backward                          0.029609                       58   5
   81              map_gather                            0.000711                     29   6
   82              m_alltoallv_z                         0.027789                     29   6
   83              map_scatter                           0.000785                     29   6
   84      brmix                                 0.033636                             29   2
   85        brpre                                 0.001575                           29   3
   86        setg0                                 0.006143                           44   3
   87        broyd                                 0.010369                           29   3
   88          brsav                                 0.000601                        168   4
   89          brget                                 0.000623                        286   4
   90      force_and_stress                     54.475838                             15   2
   91        set_charge                            2.335086                           15   3
   92          soft_charge                           2.195319                         15   4
   93            fftwav_mpi                            1.526993                      945   5
   94              fftwav                                1.523541                    945   6
   95                fft3d                                 1.397024                  945   7
   96            pw_charge                             0.134418                      945   5
   97            fft3d_mpi                             0.098825                       15   5
   98              fftbas_plan_mpi                       0.093981                     15   6
   99                dfftw_execute                         0.005009                   45   7
  100                map_backward                          0.087158                   30   7
  101                  map_gather                            0.001574                 30   8
  102                  m_alltoallv_z                         0.084936                 30   8
  103                  map_scatter                           0.000378                 30   8
  104          depsum                                0.026854                         15   4
  105          fft3d_mpi                             0.094798                         15   4
  106            fftbas_plan_mpi                       0.094571                       15   5
  107              dfftw_execute                         0.002164                     45   6
  108              map_backward                          0.089936                     30   6
  109                map_gather                            0.000350                   15   7
  110                m_alltoallv_z                         0.088986                   15   7
  111                map_scatter                           0.000421                   15   7
  112        forloc                                0.042285                           15   3
  113        fornl                                 4.311997                           15   3
  114          phase                                 0.704192                        945   4
  115        fordep                                0.232464                           15   3
  116          setdij_                               0.230160                         90   4
  117        setdij_                               1.240434                          300   3
  118        set_dd_paw                            0.191171                           15   3
  119          set_rsgf_all                          0.000028                         15   4
  120        strkin                                0.039994                           15   3
  121        strelo                                0.028625                           15   3
  122        strenl                               44.935794                           15   3
  123          spher                                27.863381                        285   4
  124          phase                                 6.638923                       8505   4
  125          proj1                                 5.672066                       8505   4
  126        fft3d_mpi                             0.540004                          165   3
  127          fftbas_plan_mpi                       0.537322                        165   4
  128            dfftw_execute                         0.024142                      495   5
  129            map_forward                           0.265654                      150   5
  130              map_gather                            0.001355                     75   6
  131              m_alltoallv_z                         0.260760                     75   6
  132              map_scatter                           0.002647                     75   6
  133            map_backward                          0.220629                      180   5
  134              map_gather                            0.002254                     90   6
  135              m_alltoallv_z                         0.214886                     90   6
  136              map_scatter                           0.002489                     90   6
  137        ggaall_grid                           0.065935                           15   3
  138        forhar                                0.050766                           30   3
  139        strehar                               0.020892                           15   3
  140        chggra                                0.191077                           15   3
  141          fft3d_mpi                             0.161191                         45   4
  142            fftbas_plan_mpi                       0.160469                       45   5
  143              dfftw_execute                         0.006806                    135   6
  144              map_forward                           0.133243                     60   6
  145                map_gather                            0.000582                   30   7
  146                m_alltoallv_z                         0.131175                   30   7
  147                map_scatter                           0.001098                   30   7
  148              map_backward                          0.013532                     30   6
  149                map_gather                            0.000341                   15   7
  150                m_alltoallv_z                         0.012599                   15   7
  151                map_scatter                           0.000421                   15   7
  152        brmix                                 0.052548                           15   3
  153          brpre                                 0.000636                         15   4
  154          setg0                                 0.002642                         15   4
  155          broyd                                 0.006282                         15   4
  156            brsav                                 0.000207                      105   5
  157            brget                                 0.000541                      280   5
 
 Flat profile
 ============
 
             routine name                   CPU           calls
 ---------------------------------------------------------------
 eddav                                 792.279924          48
 redis_proj                             43.721674       45639
 fft3d                                  37.183792       24174
 redis_pw                               36.829603       37017
 total_time                             36.426712           1
 spher                                  29.421914         300
 proj1                                  14.208954       17127
 phase                                  10.499317       13434
 orth1                                  10.045228       29079
 gemm                                    8.846697       64206
 strenl                                  4.761424          15
 m_sum_g                                 3.737109        1890
 fornl                                   3.607805          15
 vhamil                                  2.842004       10701
 fftwav                                  2.619470       13473
 bg_ppotrf_trtri                         2.462135         945
 m_alltoallv_z                           2.383790        1186
 work_mul_crexp                          2.054346       64206
 setdij_                                 1.583334         450
 soft_charge                             0.979305          44
 fftext_mpi                              0.967840       10701
 set_dd_paw                              0.882248          74
 w1_copy                                 0.825729       32103
 eccp                                    0.656356        3024
 hamiltmu                                0.602974       10701
 overl                                   0.460916       19323
 vnlac0                                  0.434109       10701
 pw_charge                               0.396117        2772
 apply_precond                           0.331402        7677
 ggaall_grid                             0.326363          74
 lincom_slice                            0.315580         945
 kinhamil                                0.257943       10701
 overl1                                  0.221285       10701
 orth1_nosubindex                        0.219411         945
 dfftw_execute                           0.196855        3249
 force_and_stress                        0.196767          15
 fftbas_plan_mpi                         0.171950        1083
 depsum                                  0.152669          44
 orthch                                  0.112487          15
 fft3d_mpi                               0.105911       11784
 setup_precond                           0.095203        3024
 w1_projall                              0.061599        7677
 brmix                                   0.058537          44
 fftwav_mpi                              0.056726       13473
 set_charge                              0.052865          44
 forhar                                  0.050766          30
 forloc                                  0.042285          15
 strkin                                  0.039994          15
 map_scatter                             0.039651        1186
 chggra                                  0.029886          15
 strelo                                  0.028625          15
 map_gather                              0.028093        1186
 lincom_distri                           0.023656         945
 strehar                                 0.020892          15
 orth1_distri                            0.019894         945
 truncate_high_frequency_w1              0.015941       13725
 broyd                                   0.014680          44
 proj                                    0.008968         945
 setg0                                   0.008785          59
 recon_slice                             0.008773         945
 map_forward                             0.007465        1072
 distri_slice                            0.007233         945
 map_backward                            0.006659        1094
 choleski                                0.004600         945
 fordep                                  0.002304          15
 brpre                                   0.002211          44
 brget                                   0.001163         566
 brsav                                   0.000808         273
 brgrid                                  0.000235           1
 set_rsgf_all                            0.000143          74
 redis_pw_over_bands                     0.000017          15
 ---------------------------------------------------------------
  summed up times    1055.06810498238     
 
 Accumulative profile
 ====================
 
             routine name                   CPU           calls
 ---------------------------------------------------------------
 total_time                           1055.068105           1
 eddav                                 943.664686          48
 force_and_stress                       54.475838          15
 strenl                                 44.935794          15
 redis_proj                             43.721674       45639
 fft3d                                  37.183792       24174
 redis_pw                               36.829603       37017
 hamiltmu                               32.712281       10701
 spher                                  29.421914         300
 fftwav_mpi                             23.429418       13473
 fftwav                                 23.372693       13473
 fft3d_mpi                              19.370944       11784
 kinhamil                               17.710866       10701
 fftext_mpi                             17.452923       10701
 proj1                                  14.208954       17127
 vnlac0                                 11.335152       10701
 phase                                  10.499317       13434
 orthch                                 10.491054          15
 orth1                                  10.045228       29079
 gemm                                    8.846697       64206
 w1_projall                              7.966917        7677
 set_charge                              6.421432          44
 soft_charge                             6.081772          44
 fornl                                   4.311997          15
 m_sum_g                                 3.737109        1890
 vhamil                                  2.842004       10701
 fftbas_plan_mpi                         2.834463        1083
 choleski                                2.466734         945
 bg_ppotrf_trtri                         2.462135         945
 m_alltoallv_z                           2.383790        1186
 orth1_distri                            2.342045         945
 work_mul_crexp                          2.054346       64206
 lincom_distri                           1.989611         945
 setdij_                                 1.583334         450
 map_forward                             1.441571        1072
 map_backward                            1.024088        1094
 set_dd_paw                              0.882391          74
 w1_copy                                 0.825729       32103
 eccp                                    0.656356        3024
 proj                                    0.640538         945
 overl                                   0.460916       19323
 pw_charge                               0.396117        2772
 apply_precond                           0.331402        7677
 ggaall_grid                             0.326363          74
 lincom_slice                            0.315580         945
 fordep                                  0.232464          15
 overl1                                  0.221285       10701
 orth1_nosubindex                        0.219411         945
 dfftw_execute                           0.196855        3249
 chggra                                  0.191077          15
 depsum                                  0.152669          44
 setup_precond                           0.095203        3024
 brmix                                   0.086184          44
 forhar                                  0.050766          30
 forloc                                  0.042285          15
 strkin                                  0.039994          15
 map_scatter                             0.039651        1186
 strelo                                  0.028625          15
 map_gather                              0.028093        1186
 strehar                                 0.020892          15
 broyd                                   0.016651          44
 truncate_high_frequency_w1              0.015941       13725
 setg0                                   0.008785          59
 recon_slice                             0.008773         945
 distri_slice                            0.007233         945
 brpre                                   0.002211          44
 brget                                   0.001163         566
 brsav                                   0.000808         273
 brgrid                                  0.000235           1
 set_rsgf_all                            0.000143          74
 redis_pw_over_bands                     0.000017          15
 ---------------------------------------------------------------
 
Profiling took   0.637627  0.237132  0.007577  0.007374 seconds
Profiling took   0.758524 seconds
